<?xml version="1.0"?>
<VTKFile type="UnstructuredGrid"  version="0.1"  >
<UnstructuredGrid>
<Piece  NumberOfPoints="1089" NumberOfCells="2048">
<Points>
<DataArray  type="Float64"  NumberOfComponents="3"  format="ascii">0 0 0  0.03125 0 0  0.0625 0 0  0.09375 0 0  0.125 0 0  0.15625 0 0  0.1875 0 0  0.21875 0 0  0.25 0 0  0.28125 0 0  0.3125 0 0  0.34375 0 0  0.375 0 0  0.40625 0 0  0.4375 0 0  0.46875 0 0  0.5 0 0  0.53125 0 0  0.5625 0 0  0.59375 0 0  0.625 0 0  0.65625 0 0  0.6875 0 0  0.71875 0 0  0.75 0 0  0.78125 0 0  0.8125 0 0  0.84375 0 0  0.875 0 0  0.90625 0 0  0.9375 0 0  0.96875 0 0  1 0 0  0 0.03125 0  0.03125 0.03125 0  0.0625 0.03125 0  0.09375 0.03125 0  0.125 0.03125 0  0.15625 0.03125 0  0.1875 0.03125 0  0.21875 0.03125 0  0.25 0.03125 0  0.28125 0.03125 0  0.3125 0.03125 0  0.34375 0.03125 0  0.375 0.03125 0  0.40625 0.03125 0  0.4375 0.03125 0  0.46875 0.03125 0  0.5 0.03125 0  0.53125 0.03125 0  0.5625 0.03125 0  0.59375 0.03125 0  0.625 0.03125 0  0.65625 0.03125 0  0.6875 0.03125 0  0.71875 0.03125 0  0.75 0.03125 0  0.78125 0.03125 0  0.8125 0.03125 0  0.84375 0.03125 0  0.875 0.03125 0  0.90625 0.03125 0  0.9375 0.03125 0  0.96875 0.03125 0  1 0.03125 0  0 0.0625 0  0.03125 0.0625 0  0.0625 0.0625 0  0.09375 0.0625 0  0.125 0.0625 0  0.15625 0.0625 0  0.1875 0.0625 0  0.21875 0.0625 0  0.25 0.0625 0  0.28125 0.0625 0  0.3125 0.0625 0  0.34375 0.0625 0  0.375 0.0625 0  0.40625 0.0625 0  0.4375 0.0625 0  0.46875 0.0625 0  0.5 0.0625 0  0.53125 0.0625 0  0.5625 0.0625 0  0.59375 0.0625 0  0.625 0.0625 0  0.65625 0.0625 0  0.6875 0.0625 0  0.71875 0.0625 0  0.75 0.0625 0  0.78125 0.0625 0  0.8125 0.0625 0  0.84375 0.0625 0  0.875 0.0625 0  0.90625 0.0625 0  0.9375 0.0625 0  0.96875 0.0625 0  1 0.0625 0  0 0.09375 0  0.03125 0.09375 0  0.0625 0.09375 0  0.09375 0.09375 0  0.125 0.09375 0  0.15625 0.09375 0  0.1875 0.09375 0  0.21875 0.09375 0  0.25 0.09375 0  0.28125 0.09375 0  0.3125 0.09375 0  0.34375 0.09375 0  0.375 0.09375 0  0.40625 0.09375 0  0.4375 0.09375 0  0.46875 0.09375 0  0.5 0.09375 0  0.53125 0.09375 0  0.5625 0.09375 0  0.59375 0.09375 0  0.625 0.09375 0  0.65625 0.09375 0  0.6875 0.09375 0  0.71875 0.09375 0  0.75 0.09375 0  0.78125 0.09375 0  0.8125 0.09375 0  0.84375 0.09375 0  0.875 0.09375 0  0.90625 0.09375 0  0.9375 0.09375 0  0.96875 0.09375 0  1 0.09375 0  0 0.125 0  0.03125 0.125 0  0.0625 0.125 0  0.09375 0.125 0  0.125 0.125 0  0.15625 0.125 0  0.1875 0.125 0  0.21875 0.125 0  0.25 0.125 0  0.28125 0.125 0  0.3125 0.125 0  0.34375 0.125 0  0.375 0.125 0  0.40625 0.125 0  0.4375 0.125 0  0.46875 0.125 0  0.5 0.125 0  0.53125 0.125 0  0.5625 0.125 0  0.59375 0.125 0  0.625 0.125 0  0.65625 0.125 0  0.6875 0.125 0  0.71875 0.125 0  0.75 0.125 0  0.78125 0.125 0  0.8125 0.125 0  0.84375 0.125 0  0.875 0.125 0  0.90625 0.125 0  0.9375 0.125 0  0.96875 0.125 0  1 0.125 0  0 0.15625 0  0.03125 0.15625 0  0.0625 0.15625 0  0.09375 0.15625 0  0.125 0.15625 0  0.15625 0.15625 0  0.1875 0.15625 0  0.21875 0.15625 0  0.25 0.15625 0  0.28125 0.15625 0  0.3125 0.15625 0  0.34375 0.15625 0  0.375 0.15625 0  0.40625 0.15625 0  0.4375 0.15625 0  0.46875 0.15625 0  0.5 0.15625 0  0.53125 0.15625 0  0.5625 0.15625 0  0.59375 0.15625 0  0.625 0.15625 0  0.65625 0.15625 0  0.6875 0.15625 0  0.71875 0.15625 0  0.75 0.15625 0  0.78125 0.15625 0  0.8125 0.15625 0  0.84375 0.15625 0  0.875 0.15625 0  0.90625 0.15625 0  0.9375 0.15625 0  0.96875 0.15625 0  1 0.15625 0  0 0.1875 0  0.03125 0.1875 0  0.0625 0.1875 0  0.09375 0.1875 0  0.125 0.1875 0  0.15625 0.1875 0  0.1875 0.1875 0  0.21875 0.1875 0  0.25 0.1875 0  0.28125 0.1875 0  0.3125 0.1875 0  0.34375 0.1875 0  0.375 0.1875 0  0.40625 0.1875 0  0.4375 0.1875 0  0.46875 0.1875 0  0.5 0.1875 0  0.53125 0.1875 0  0.5625 0.1875 0  0.59375 0.1875 0  0.625 0.1875 0  0.65625 0.1875 0  0.6875 0.1875 0  0.71875 0.1875 0  0.75 0.1875 0  0.78125 0.1875 0  0.8125 0.1875 0  0.84375 0.1875 0  0.875 0.1875 0  0.90625 0.1875 0  0.9375 0.1875 0  0.96875 0.1875 0  1 0.1875 0  0 0.21875 0  0.03125 0.21875 0  0.0625 0.21875 0  0.09375 0.21875 0  0.125 0.21875 0  0.15625 0.21875 0  0.1875 0.21875 0  0.21875 0.21875 0  0.25 0.21875 0  0.28125 0.21875 0  0.3125 0.21875 0  0.34375 0.21875 0  0.375 0.21875 0  0.40625 0.21875 0  0.4375 0.21875 0  0.46875 0.21875 0  0.5 0.21875 0  0.53125 0.21875 0  0.5625 0.21875 0  0.59375 0.21875 0  0.625 0.21875 0  0.65625 0.21875 0  0.6875 0.21875 0  0.71875 0.21875 0  0.75 0.21875 0  0.78125 0.21875 0  0.8125 0.21875 0  0.84375 0.21875 0  0.875 0.21875 0  0.90625 0.21875 0  0.9375 0.21875 0  0.96875 0.21875 0  1 0.21875 0  0 0.25 0  0.03125 0.25 0  0.0625 0.25 0  0.09375 0.25 0  0.125 0.25 0  0.15625 0.25 0  0.1875 0.25 0  0.21875 0.25 0  0.25 0.25 0  0.28125 0.25 0  0.3125 0.25 0  0.34375 0.25 0  0.375 0.25 0  0.40625 0.25 0  0.4375 0.25 0  0.46875 0.25 0  0.5 0.25 0  0.53125 0.25 0  0.5625 0.25 0  0.59375 0.25 0  0.625 0.25 0  0.65625 0.25 0  0.6875 0.25 0  0.71875 0.25 0  0.75 0.25 0  0.78125 0.25 0  0.8125 0.25 0  0.84375 0.25 0  0.875 0.25 0  0.90625 0.25 0  0.9375 0.25 0  0.96875 0.25 0  1 0.25 0  0 0.28125 0  0.03125 0.28125 0  0.0625 0.28125 0  0.09375 0.28125 0  0.125 0.28125 0  0.15625 0.28125 0  0.1875 0.28125 0  0.21875 0.28125 0  0.25 0.28125 0  0.28125 0.28125 0  0.3125 0.28125 0  0.34375 0.28125 0  0.375 0.28125 0  0.40625 0.28125 0  0.4375 0.28125 0  0.46875 0.28125 0  0.5 0.28125 0  0.53125 0.28125 0  0.5625 0.28125 0  0.59375 0.28125 0  0.625 0.28125 0  0.65625 0.28125 0  0.6875 0.28125 0  0.71875 0.28125 0  0.75 0.28125 0  0.78125 0.28125 0  0.8125 0.28125 0  0.84375 0.28125 0  0.875 0.28125 0  0.90625 0.28125 0  0.9375 0.28125 0  0.96875 0.28125 0  1 0.28125 0  0 0.3125 0  0.03125 0.3125 0  0.0625 0.3125 0  0.09375 0.3125 0  0.125 0.3125 0  0.15625 0.3125 0  0.1875 0.3125 0  0.21875 0.3125 0  0.25 0.3125 0  0.28125 0.3125 0  0.3125 0.3125 0  0.34375 0.3125 0  0.375 0.3125 0  0.40625 0.3125 0  0.4375 0.3125 0  0.46875 0.3125 0  0.5 0.3125 0  0.53125 0.3125 0  0.5625 0.3125 0  0.59375 0.3125 0  0.625 0.3125 0  0.65625 0.3125 0  0.6875 0.3125 0  0.71875 0.3125 0  0.75 0.3125 0  0.78125 0.3125 0  0.8125 0.3125 0  0.84375 0.3125 0  0.875 0.3125 0  0.90625 0.3125 0  0.9375 0.3125 0  0.96875 0.3125 0  1 0.3125 0  0 0.34375 0  0.03125 0.34375 0  0.0625 0.34375 0  0.09375 0.34375 0  0.125 0.34375 0  0.15625 0.34375 0  0.1875 0.34375 0  0.21875 0.34375 0  0.25 0.34375 0  0.28125 0.34375 0  0.3125 0.34375 0  0.34375 0.34375 0  0.375 0.34375 0  0.40625 0.34375 0  0.4375 0.34375 0  0.46875 0.34375 0  0.5 0.34375 0  0.53125 0.34375 0  0.5625 0.34375 0  0.59375 0.34375 0  0.625 0.34375 0  0.65625 0.34375 0  0.6875 0.34375 0  0.71875 0.34375 0  0.75 0.34375 0  0.78125 0.34375 0  0.8125 0.34375 0  0.84375 0.34375 0  0.875 0.34375 0  0.90625 0.34375 0  0.9375 0.34375 0  0.96875 0.34375 0  1 0.34375 0  0 0.375 0  0.03125 0.375 0  0.0625 0.375 0  0.09375 0.375 0  0.125 0.375 0  0.15625 0.375 0  0.1875 0.375 0  0.21875 0.375 0  0.25 0.375 0  0.28125 0.375 0  0.3125 0.375 0  0.34375 0.375 0  0.375 0.375 0  0.40625 0.375 0  0.4375 0.375 0  0.46875 0.375 0  0.5 0.375 0  0.53125 0.375 0  0.5625 0.375 0  0.59375 0.375 0  0.625 0.375 0  0.65625 0.375 0  0.6875 0.375 0  0.71875 0.375 0  0.75 0.375 0  0.78125 0.375 0  0.8125 0.375 0  0.84375 0.375 0  0.875 0.375 0  0.90625 0.375 0  0.9375 0.375 0  0.96875 0.375 0  1 0.375 0  0 0.40625 0  0.03125 0.40625 0  0.0625 0.40625 0  0.09375 0.40625 0  0.125 0.40625 0  0.15625 0.40625 0  0.1875 0.40625 0  0.21875 0.40625 0  0.25 0.40625 0  0.28125 0.40625 0  0.3125 0.40625 0  0.34375 0.40625 0  0.375 0.40625 0  0.40625 0.40625 0  0.4375 0.40625 0  0.46875 0.40625 0  0.5 0.40625 0  0.53125 0.40625 0  0.5625 0.40625 0  0.59375 0.40625 0  0.625 0.40625 0  0.65625 0.40625 0  0.6875 0.40625 0  0.71875 0.40625 0  0.75 0.40625 0  0.78125 0.40625 0  0.8125 0.40625 0  0.84375 0.40625 0  0.875 0.40625 0  0.90625 0.40625 0  0.9375 0.40625 0  0.96875 0.40625 0  1 0.40625 0  0 0.4375 0  0.03125 0.4375 0  0.0625 0.4375 0  0.09375 0.4375 0  0.125 0.4375 0  0.15625 0.4375 0  0.1875 0.4375 0  0.21875 0.4375 0  0.25 0.4375 0  0.28125 0.4375 0  0.3125 0.4375 0  0.34375 0.4375 0  0.375 0.4375 0  0.40625 0.4375 0  0.4375 0.4375 0  0.46875 0.4375 0  0.5 0.4375 0  0.53125 0.4375 0  0.5625 0.4375 0  0.59375 0.4375 0  0.625 0.4375 0  0.65625 0.4375 0  0.6875 0.4375 0  0.71875 0.4375 0  0.75 0.4375 0  0.78125 0.4375 0  0.8125 0.4375 0  0.84375 0.4375 0  0.875 0.4375 0  0.90625 0.4375 0  0.9375 0.4375 0  0.96875 0.4375 0  1 0.4375 0  0 0.46875 0  0.03125 0.46875 0  0.0625 0.46875 0  0.09375 0.46875 0  0.125 0.46875 0  0.15625 0.46875 0  0.1875 0.46875 0  0.21875 0.46875 0  0.25 0.46875 0  0.28125 0.46875 0  0.3125 0.46875 0  0.34375 0.46875 0  0.375 0.46875 0  0.40625 0.46875 0  0.4375 0.46875 0  0.46875 0.46875 0  0.5 0.46875 0  0.53125 0.46875 0  0.5625 0.46875 0  0.59375 0.46875 0  0.625 0.46875 0  0.65625 0.46875 0  0.6875 0.46875 0  0.71875 0.46875 0  0.75 0.46875 0  0.78125 0.46875 0  0.8125 0.46875 0  0.84375 0.46875 0  0.875 0.46875 0  0.90625 0.46875 0  0.9375 0.46875 0  0.96875 0.46875 0  1 0.46875 0  0 0.5 0  0.03125 0.5 0  0.0625 0.5 0  0.09375 0.5 0  0.125 0.5 0  0.15625 0.5 0  0.1875 0.5 0  0.21875 0.5 0  0.25 0.5 0  0.28125 0.5 0  0.3125 0.5 0  0.34375 0.5 0  0.375 0.5 0  0.40625 0.5 0  0.4375 0.5 0  0.46875 0.5 0  0.5 0.5 0  0.53125 0.5 0  0.5625 0.5 0  0.59375 0.5 0  0.625 0.5 0  0.65625 0.5 0  0.6875 0.5 0  0.71875 0.5 0  0.75 0.5 0  0.78125 0.5 0  0.8125 0.5 0  0.84375 0.5 0  0.875 0.5 0  0.90625 0.5 0  0.9375 0.5 0  0.96875 0.5 0  1 0.5 0  0 0.53125 0  0.03125 0.53125 0  0.0625 0.53125 0  0.09375 0.53125 0  0.125 0.53125 0  0.15625 0.53125 0  0.1875 0.53125 0  0.21875 0.53125 0  0.25 0.53125 0  0.28125 0.53125 0  0.3125 0.53125 0  0.34375 0.53125 0  0.375 0.53125 0  0.40625 0.53125 0  0.4375 0.53125 0  0.46875 0.53125 0  0.5 0.53125 0  0.53125 0.53125 0  0.5625 0.53125 0  0.59375 0.53125 0  0.625 0.53125 0  0.65625 0.53125 0  0.6875 0.53125 0  0.71875 0.53125 0  0.75 0.53125 0  0.78125 0.531
[...]
<PointData  Tensors="f_1438"> 
<DataArray  type="Float64"  Name="f_1438"  NumberOfComponents="9" format="ascii">4.6260648858598317e-03 3.1488395806271874e+00 0.0000000000000000e+00 -3.1471424997387318e+00 -4.6260648858598317e-03 0.0000000000000000e+00 0.0000000000000000e+00 0.0000000000000000e+00 0.0000000000000000e+00  4.3798143779900595e-03 3.1338827086262970e+00 0.0000000000000000e+00 -3.1302695363829032e+00 -4.3798143779900595e-03 0.0000000000000000e+00 0.0000000000000000e+00 0.0000000000000000e+00 0.0000000000000000e+00  4.3846653844944634e-03 3.0884773813253843e+00 0.0000000000000000e+00 -3.0850289173413166e+00 -4.3846653844944634e-03 0.0000000000000000e+00 0.0000000000000000e+00 0.0000000000000000e+00 0.0000000000000000e+00  4.3384499334058520e-03 3.0133392967318984e+00 0.0000000000000000e+00 -3.0100889749597362e+00 -4.3384499334058520e-03 0.0000000000000000e+00 0.0000000000000000e+00 0.0000000000000000e+00 0.0000000000000000e+00  4.2321616771518952e-03 2.9091527994520021e+00 0.0000000000000000e+00 -2.9061824632736948e+00 -4.2321616771518952e-03 0.0000000000000000e+00 0.0000000000000000e+00 0.0000000000000000e+00 0.0000000000000000e+00  4.0660199697872502e-03 2.7769188627235111e+00 0.0000000000000000e+00 -2.7743061704325114e+00 -4.0660199697872502e-03 0.0000000000000000e+00 0.0000000000000000e+00 0.0000000000000000e+00 0.0000000000000000e+00  3.8407915847063980e-03 2.6179127723286308e+00 0.0000000000000000e+00 -2.6157256622031282e+00 -3.8407915847063980e-03 0.0000000000000000e+00 0.0000000000000000e+00 0.0000000000000000e+00 0.0000000000000000e+00  3.5583254301696341e-03 2.4336697350614043e+00 0.0000000000000000e+00 -2.4319632227734229e+00 -3.5583254301696341e-03 0.0000000000000000e+00 0.0000000000000000e+00 0.0000000000000000e+00 0.0000000000000000e+00  3.2217375610284964e-03 2.2259693590176535e+00 0.0000000000000000e+00 -2.2247833738188714e+00 -3.2217375610284964e-03 0.0000000000000000e+00 0.0000000000000000e+00 0.0000000000000000e+00 0.0000000000000000e+00  2.8353967117364953e-03 1.9968180908578606e+00 0.0000000000000000e+00 -1.9961760885187261e+00 -2.8353967117364953e-03 0.0000000000000000e+00 0.0000000000000000e+00 0.0000000000000000e+00 0.0000000000000000e+00  2.4048458623512179e-03 1.7484295664524876e+00 0.0000000000000000e+00 -1.7483378329948296e+00 -2.4048458623512179e-03 0.0000000000000000e+00 0.0000000000000000e+00 0.0000000000000000e+00 0.0000000000000000e+00  1.9366806531005748e-03 1.4832029930070612e+00 0.0000000000000000e+00 -1.4836506121130624e+00 -1.9366806531005748e-03 0.0000000000000000e+00 0.0000000000000000e+00 0.0000000000000000e+00 0.0000000000000000e+00  1.4383920371770233e-03 1.2036997523107305e+00 0.0000000000000000e+00 -1.2046592148579538e+00 -1.4383920371770233e-03 0.0000000000000000e+00 0.0000000000000000e+00 0.0000000000000000e+00 0.0000000000000000e+00  9.1817920554082251e-04 9.1261845012743481e-01 0.0000000000000000e+00 -9.1404687164750298e-01 -9.1817920554082251e-04 0.0000000000000000e+00 0.0000000000000000e+00 0.0000000000000000e+00 0.0000000000000000e+00  3.8473957773402104e-04 6.1276865843448902e-01 0.0000000000000000e+00 -6.1460955187692645e-01 -3.8473957773402104e-04 0.0000000000000000e+00 0.0000000000000000e+00 0.0000000000000000e+00 0.0000000000000000e+00  -1.5295719479260835e-04 3.0704361153867760e-01 0.0000000000000000e+00 -3.0922914396285611e-01 1.5295719479260835e-04 0.0000000000000000e+00 0.0000000000000000e+00 0.0000000000000000e+00 0.0000000000000000e+00  -6.8590328615449818e-04 -1.6078722492287177e-03 0.0000000000000000e+00 -8.4577214859747553e-04 6.8590328615449818e-04 0.0000000000000000e+00 0.0000000000000000e+00 0.0000000000000000e+00 0.0000000000000000e+00  -1.2052869144009316e-03 -3.1020996502763443e-01 0.0000000000000000e+00 3.0757048601650705e-01 1.2052869144009316e-03 0.0000000000000000e+00 0.0000000000000000e+00 0.0000000000000000e+00 0.0000000000000000e+00  -1.7027187583379439e-03 -6.1578861804304963e-01 0.0000000000000000e+00 6.1304821034365542e-01 1.7027187583379439e-03 0.0000000000000000e+00 0.0000000000000000e+00 0.0000000000000000e+00 0.0000000000000000e+00  -2.1704429211233107e-03 -9.1540028248130823e-01 0.0000000000000000e+00 9.1264330097564772e-01 2.1704429211233107e-03 0.0000000000000000e+00 0.0000000000000000e+00 0.0000000000000000e+00 0.0000000000000000e+00  -2.6015254096247685e-03 -1.2061602825964899e+00 0.0000000000000000e+00 1.2034674158047720e+00 2.6015254096247685e-03 0.0000000000000000e+00 0.0000000000000000e+00 0.0000000000000000e+00 0.0000000000000000e+00  -2.9900139471413139e-03 -1.4852705667827686e+00 0.0000000000000000e+00 1.4827159052254049e+00 2.9900139471413139e-03 0.0000000000000000e+00 0.0000000000000000e+00 0.0000000000000000e+00 0.0000000000000000e+00  -3.3310640201560898e-03 -1.7500465701150343e+00 0.0000000000000000e+00 1.7476949706523397e+00 3.3310640201560898e-03 0.0000000000000000e+00 0.0000000000000000e+00 0.0000000000000000e+00 0.0000000000000000e+00  -3.6210273063139926e-03 -1.9979429320862883e+00 0.0000000000000000e+00 1.9958477796082637e+00 3.6210273063139926e-03 0.0000000000000000e+00 0.0000000000000000e+00 0.0000000000000000e+00 0.0000000000000000e+00  -3.8574999807957735e-03 -2.2265778251848154e+00 0.0000000000000000e+00 2.2247792793968317e+00 3.8574999807957735e-03 0.0000000000000000e+00 0.0000000000000000e+00 0.0000000000000000e+00 0.0000000000000000e+00  -4.0393297360046673e-03 -2.4337556623071421e+00 0.0000000000000000e+00 2.4322794634958713e+00 4.0393297360046673e-03 0.0000000000000000e+00 0.0000000000000000e+00 0.0000000000000000e+00 0.0000000000000000e+00  -4.1665815700615595e-03 -2.6174879599841336e+00 0.0000000000000000e+00 2.6163448602753561e+00 4.1665815700615595e-03 0.0000000000000000e+00 0.0000000000000000e+00 0.0000000000000000e+00 0.0000000000000000e+00  -4.2404618683390648e-03 -2.7760121234927433e+00 0.0000000000000000e+00 2.7751980357310555e+00 4.2404618683390648e-03 0.0000000000000000e+00 0.0000000000000000e+00 0.0000000000000000e+00 0.0000000000000000e+00  -4.2631629087785091e-03 -2.9078077860753249e+00 0.0000000000000000e+00 2.9073049396792414e+00 4.2631629087785091e-03 0.0000000000000000e+00 0.0000000000000000e+00 0.0000000000000000e+00 0.0000000000000000e+00  -4.2371238280821469e-03 -3.0116095666919920e+00 0.0000000000000000e+00 3.0113898678592901e+00 4.2371238280821469e-03 0.0000000000000000e+00 0.0000000000000000e+00 0.0000000000000000e+00 0.0000000000000000e+00  -4.1617682188687223e-03 -3.0864256343595859e+00 0.0000000000000000e+00 3.0864424715268504e+00 4.1617682188687223e-03 0.0000000000000000e+00 0.0000000000000000e+00 0.0000000000000000e+00 0.0000000000000000e+00  -4.1078017183484141e-03 -3.1316414385671076e+00 0.0000000000000000e+00 3.1317106551002873e+00 4.1078017183484141e-03 0.0000000000000000e+00 0.0000000000000000e+00 0.0000000000000000e+00 0.0000000000000000e+00  2.0929537419156663e-03 -3.1451985436190011e+00 0.0000000000000000e+00 3.1451985436191103e+00 -2.0929537419156663e-03 0.0000000000000000e+00 0.0000000000000000e+00 0.0000000000000000e+00 0.0000000000000000e+00  4.9735945757571265e-03 3.1333771606596947e+00 0.0000000000000000e+00 -3.1318784758549199e+00 -4.9735945757571265e-03 0.0000000000000000e+00 0.0000000000000000e+00 0.0000000000000000e+00 0.0000000000000000e+00  -2.5597720727963288e-02 3.1184509965924523e+00 0.0000000000000000e+00 -3.1153409279098443e+00 2.5597720727963288e-02 0.0000000000000000e+00 0.0000000000000000e+00 0.0000000000000000e+00 0.0000000000000000e+00  -5.5564563727864044e-02 3.0732811014937247e+00 0.0000000000000000e+00 -3.0703326521669818e+00 5.5564563727864044e-02 0.0000000000000000e+00 0.0000000000000000e+00 0.0000000000000000e+00 0.0000000000000000e+00  -8.4974491327137386e-02 2.9984963409688850e+00 0.0000000000000000e+00 -2.9957536982679596e+00 8.4974491327137386e-02 0.0000000000000000e+00 0.0000000000000000e+00 0.0000000000000000e+00 0.0000000000000000e+00  -1.1358796161041224e-01 2.8947939248428836e+00 0.0000000000000000e+00 -2.8923432307434944e+00 1.1358796161041224e-01 0.0000000000000000e+00 0.0000000000000000e+00 0.0000000000000000e+00 0.0000000000000000e+00  -1.4113153115641577e-01 2.7631780409640752e+00 0.0000000000000000e+00 -2.7610886007790900e+00 1.4113153115641577e-01 0.0000000000000000e+00 0.0000000000000000e+00 0.0000000000000000e+00 0.0000000000000000e+00  -1.6734009586800819e-01 2.6049199557779943e+00 0.0000000000000000e+00 -2.6032483924774645e+00 1.6734009586800819e-01 0.0000000000000000e+00 0.0000000000000000e+00 0.0000000000000000e+00 0.0000000000000000e+00  -1.9196085329871729e-01 2.4215479629062497e+00 0.0000000000000000e+00 -2.4203375994414866e+00 1.9196085329871729e-01 0.0000000000000000e+00 0.0000000000000000e+00 0.0000000000000000e+00 0.0000000000000000e+00  -2.1475560629647741e-01 2.2148330845346380e+00 0.0000000000000000e+00 -2.2141128950133386e+00 2.1475560629647741e-01 0.0000000000000000e+00 0.0000000000000000e+00 0.0000000000000000e+00 0.0000000000000000e+00  -2.3550298798341668e-01 1.9867719708905873e+00 0.0000000000000000e+00 -1.9865558004570405e+00 2.3550298798341668e-01 0.0000000000000000e+00 0.0000000000000000e+00 0.0000000000000000e+00 0.0000000000000000e+00  -2.5400061600841789e-01 1.7395674786017092e+00 0.0000000000000000e+00 -1.7398537438231094e+00 2.5400061600841789e-01 0.0000000000000000e+00 0.0000000000000000e+00 0.0000000000000000e+00 0.0000000000000000e+00  -2.7006711988871118e-01 1.4756072105276308e+00 0.0000000000000000e+00 -1.4763791385516853e+00 2.7006711988871118e-01 0.0000000000000000e+00 0.0000000000000000e+00 0.0000000000000000e+00 0.0000000000000000e+00  -2.8354400260486501e-01 1.1974402548316434e+00 0.0000000000000000e+00 -1.1986666641694343e+00 2.8354400260486501e-01 0.0000000000000000e+00 0.0000000000000000e+00 0.0000000000000000e+00 0.0000000000000000e+00  -2.9429730755796496e-01 9.0775236484335997e-01 0.0000000000000000e+00 -9.0938895667694153e-01 2.9429730755796496e-01 0.0000000000000000e+00 0.0000000000000000e+00 0.0000000000000000e+00 0.0000000000000000e+00  -3.0221906682546473e-01 6.0933982523551100e-01 0.0000000000000000e+00 -6.1133094311485725e-01 3.0221906682546473e-01 0.0000000000000000e+00 0.0000000000000000e+00 0.0000000000000000e+00 0.0000000000000000e+00  -3.0722850928663042e-01 3.0508227456120784e-01 0.0000000000000000e+00 -3.0736305457895852e-01 3.0722850928663042e-01 0.0000000000000000e+00 0.0000000000000000e+00 0.0000000000000000e+00 0.0000000000000000e+00  -3.0927301009975910e-01 -2.0852515995863439e-03 0.0000000000000000e+00 -4.1358379179172282e-04 3.0927301009975910e-01 0.0000000000000000e+00 0.0000000000000000e+00 0.0000000000000000e+00 0.0000000000000000e+00  -3.0832876554590766e-01 -3.0920077525685863e-01 0.0000000000000000e+00 3.0655955238916427e-01 3.0832876554590766e-01 0.0000000000000000e+00 0.0000000000000000e+00 0.0000000000000000e+00 0.0000000000000000e+00  -3.0440118004840888e-01 -6.1330404805675276e-01 0.0000000000000000e+00 6.1059737020136928e-01 3.0440118004840888e-01 0.0000000000000000e+00 0.0000000000000000e+00 0.0000000000000000e+00 0.0000000000000000e+00  -2.9752495551880187e-01 -9.1146515883251433e-01 0.0000000000000000e+00 9.0876841845364598e-01 2.9752495551880187e-01 0.0000000000000000e+00 0.0000000000000000e+00 0.0000000000000000e+00 0.0000000000000000e+00  -2.8776387664744746e-01 -1.2008127972516347e+00 0.0000000000000000e+00 1.1981971408155521e+00 2.8776387664744746e-01 0.0000000000000000e+00 0.0000000000000000e+00 0.0000000000000000e+00 0.0000000000000000e+00  -2.7521028949617582e-01 -1.4785618994045122e+00 0.0000000000000000e+00 1.4760917227141357e+00 2.7521028949617582e-01 0.0000000000000000e+00 0.0000000000000000e+00 0.0000000000000000e+00 0.0000000000000000e+00  -2.5998427463073220e-01 -1.7420404091016461e+00 0.0000000000000000e+00 1.7397711486916700e+00 2.5998427463073220e-01 0.0000000000000000e+00 0.0000000000000000e+00 0.0000000000000000e+00 0.0000000000000000e+00  -2.4223251989917402e-01 -1.9887148990178194e+00 0.0000000000000000e+00 1.9866912029697896e+00 2.4223251989917402e-01 0.0000000000000000e+00 0.0000000000000000e+00 0.0000000000000000e+00 0.0000000000000000e+00  -2.2212690153147710e-01 -2.2162148083836435e+00 0.0000000000000000e+00 2.2144691555110865e+00 2.2212690153147710e-01 0.0000000000000000e+00 0.0000000000000000e+00 0.0000000000000000e+00 0.0000000000000000e+00  -1.9986278481098438e-01 -2.4223550684601607e+00 0.0000000000000000e+00 2.4209068876824062e+00 1.9986278481098438e-01 0.0000000000000000e+00 0.0000000000000000e+00 0.0000000000000000e+00 0.0000000000000000e+00  -1.7565705469115012e-01 -2.6051569040467104e+00 0.0000000000000000e+00 2.6040122242831805e+00 1.7565705469115012e-01 0.0000000000000000e+00 0.0000000000000000e+00 0.0000000000000000e+00 0.0000000000000000e+00  -1.4974587283810098e-01 -2.7628666283637591e+00 0.0000000000000000e+00 2.7620182444865820e+00 1.4974587283810098e-01 0.0000000000000000e+00 0.0000000000000000e+00 0.0000000000000000e+00 0.0000000000000000e+00  -1.2238211321160827e-01 -2.8939723960549837e+00 0.0000000000000000e+00 2.8934002873104294e+00 1.2238211321160827e-01 0.0000000000000000e+00 0.0000000000000000e+00 0.0000000000000000e+00 0.0000000000000000e+00  -9.3832728470148549e-02 -2.9972199464945657e+00 0.0000000000000000e+00 2.9968899448816222e+00 9.3832728470148549e-02 0.0000000000000000e+00 0.0000000000000000e+00 0.0000000000000000e+00 0.0000000000000000e+00  -6.4379494797695322e-02 -3.0716402023410843e+00 0.0000000000000000e+00 3.0714837986290031e+00 6.4379494797695322e-02 0.0000000000000000e+00 0.0000000000000000e+00 0.0000000000000000e+00 0.0000000000000000e+00  -3.4370552325728172e-02 -3.1166054249400208e+00 0.0000000000000000e+00 3.1164747742085126e+00 3.4370552325728172e-02 0.0000000000000000e+00 0.0000000000000000e+00 0.0000000000000000e+00 0.0000000000000000e+00  2.3084082220056266e-03 -3.1304979085929903e+00 0.0000000000000000e+00 3.1297396583973240e+00 -2.3084082220056266e-03 0.0000000000000000e+00 0.0000000000000000e+00 0.0000000000000000e+00 0.0000000000000000e+00  4.8661179079266459e-03 3.0880808800795947e+00 0.0000000000000000e+00 -3.0866233920267052e+00 -4.8661179079266459e-03 0.0000000000000000e+00 0.0000000000000000e+00 0.0000000000000000e+00 0.0000000000000000e+00  -5.5530671779481983e-02 3.0733617214245359e+00 0.0000000000000000e+00 -3.0702787191390666e+00 5.5530671779481983e-02 0.0000000000000000e+00 0.0000000000000000e+00 0.0000000000000000e+00 0.0000000000000000e+00  -1.1513229035476767e-01 3.0287934161854757e+00 0.0000000000000000e+00 -3.0259236631008517e+00 1.1513229035476767e-01 0.0000000000000000e+00 0.0000000000000000e+00 0.0000000000000000e+00 0.0000000000000000e+00  -1.7361267504872385e-01 2.9550516844066053e+00 0.0000000000000000e+00 -2.9524160977194374e+00 1.7361267504872385e-01 0.0000000000000000e+00 0.0000000000000000e+00 0.0000000000000000e+00 0.0000000000000000e+00  -2.3044157193460479e-01 2.8528099598024563e+00 0.0000000000000000e+00 -2.8504858515904634e+00 2.3044157193460479e-01 0.0000000000000000e+00 0.0000000000000000e+00 0.0000000000000000e+00 0.0000000000000000e+00  -2.8507695018877094e-01 2.7230543816311337e+00 0.0000000000000000e+00 -2.7211099936413357e+00 2.8507695018877094e-01 0.0000000000000000e+00 0.0000000000000000e+00 0.0000000000000000e+00 0.0000000000000000e+00  -3.3699434730089639e-01 2.5670381153644337e+00 0.0000000000000000e+00 -2.5655295510108589e+00 3.3699434730089639e-01 0.0000000000000000e+00 0.0000000000000000e+00 0.0000000000000000e+00 0.0000000000000000e+00  -3.8569379642004398e-01 2.3862682340823684e+00 0.0000000000000000e+00 -2.3852378282378957e+00 3.8569379642004398e-01 0.0000000000000000e+00 0.0000000000000000e+00 0.0000000000000000e+00 0.0000000000000000e+00  -4.3070516161951633e-01 2.1824911533612776e+00 0.0000000000000000e+00 -2.1819664386047299e+00 4.3070516161951633e-01 0.0000000000000000e+00 0.0000000000000000e+00 0.0000000000000000e+00 0.0000000000000000e+00  -4.7159282723598683e-01 1.9576757486160854e+00 0.0000000000000000e+00 -1.9576687770496448e+00 4.7159282723598683e-01 0.0000000000000000e+00 0.0000000000000000e+00 0.0000000000000000e+00 0.0000000000000000e+00  -5.0795999618582299e-01 1.7139942190504309e+00 0.0000000000000000e+00 -1.7145013388541785e+00 5.0795999618582299e-01 0.0000000000000000e+00 0.0000000000000000e+00 0.0000000000000000e+00 0.0000000000000000e+00  -5.3945262814613737e-01 1.4538009250063180e+00 0.0000000000000000e+00 -1.4548030730440789e+00 5.3945262814613737e-01 0.0000000000000000e+00 0.0000000000000000e+00 0.0000000000000000e+00 0.0000000000000000e+00  -5.6576299272825326e-01 1.1796094347129209e+00 0.0000000000000000e+00 -1.1810729589652331e+00 5.6576299272825326e-01 0.0000000000000000e+00 0.0000000000000000e+00 0.0000000000000000e+00 0.0000000000000000e+00  -5.8663280154355013e-01 8.9406802322091872e-01 0.0000000000000000e+00 -8.9594601393739182e-01 5.8663280154355013e-01 0.0000000000000000e+00 0.0000000000000000e+00 0.0000000000000000e+00 0.0000000000000000e+00  -6.0185588274240354e-01 5.9993387270255916e-01 0.0000000000000000e+00 -6.0216795780580945e-01 6.0185588274240354e-01 0.0000000000000000e+00 0.0000000000000000e+00 0.0000000000000000e+00 0.0000000000000000e+00  -6.1128036466273716e-01 3.0004624145296455e-01 0.0000000000000000e+00 -3.0256877596088927e-01 6.1128036466273716e-01 0.0000000000000000e+00 0.0000000000000000e+00 0.0000000000000000e+00 0.0000000000000000e+00  -6.1481034052037420e-01 -2.7011356526863949e-03 0.0000000000000000e+00 -3.5435112799259559e-05 6.1481034052037420e-01 0.0000000000000000e+00 0.0000000000000000e+00 0.0000000000000000e+00 0.0000000000000000e+00  -6.1240698911169378e-01 -3.0538813336782433e-01 0.0000000000000000e+00 3.0251598499999371e-01 6.1240698911169378e-01 0.0000000000000000e+00 0.0000000000000000e+00 0.0000000000000000e+00 0.0000000000000000e+00  -6.0408913371375172e-01 -6.0509653256250051e-01 0.0000000000000000e+00 6.0216847264370266e-01 6.0408913371375172e-01 0.0000000000000000e+00 0.0000000000000000e+00 0.0000000000000000e+00 0.0000000000000000e+00  -5.8993322637149925e-01 -8.9893824692604396e-01 0.0000000000000000e+00 8.9603230284432211e-01 5.8993322637149925e-01 0.0000000000000000e+00 0.0000000000000000e+00 0.0000000000000000e+00 0.0000000000000000e+00  -5.7007275128156198e-01 -1.1840832032882835e+00 0.0000000000000000e+00 1.1812730171685681e+00 5.7007275128156198e-01 0.0000000000000000e+00 0.0000000000000000e+00 0.0000000000000000e+00 0.0000000000000000e+00  -5.4469704751642622e-01 -1.4577866044851033e+00 0.0000000000000000e+00 1.4551388891916035e+00 5.4469704751642622e-01 0.0000000000000000e+00 0.0000000000000000e+00 0.0000000000000000e+00 0.0000000000000000e+00  -5.1404955805212693e-01 -1.7174153120244731e+00 0.0000000000000000e+00 1.7149876044906003e+00 5.1404955805212693e-01 0.0000000000000000e+00 0.0000000000000000e+00 0.0000000000000000e+00 0.0000000000000000e+00  -4.7842551879713496e-01 -1.9604730968435731e+00 0.0000000000000000e+00 1.9583118909068149e+00 4.7842551879713496e-01 0.0000000000000000e+00 0.0000000000000000e+00 0.0000000000000000e+00 0.0000000000000000e+00  -4.3816910794965719e-01 -2.1846245203589834e+00 0.0000000000000000e+00 2.1827638441783663e+00 4.3816910794965719e-01 0.0000000000000000e+00 0.0000000000000000e+00 0.0000000000000000e+00 0.0000000000000000e+00  -3.9367008251897112e-01 -2.3877172257601647e+00 0.0000000000000000e+00 2.3861777052423299e+00 3.9367008251897112e-01 0.0000000000000000e+00 0.0000000000000000e+00 0.0000000000000000e+00 0.0000000000000000e+00  -3.4535993644717655e-01 -2.5678024448660302e+00 0.0000000000000000e+00 2.5665908567490492e+00 3.4535993644717655e-01 0.0000000000000000e+00 0.0000000000000000e+00 0.0000000000000000e+00 0.0000000000000000e+00  -2.9370763339879613e-01 -2.7231535715201654e+00 0.0000000000000000e+00 2.7222628134769438e+00 2.9370763339879613e-01 0.0000000000000000e+00 0.0000000000000000e+00 0.0000000000000000e+00 0.0000000000000000e+00  -2.3921505729538031e-01 -2.8522827497970038e+00 0.0000000000000000e+00 2.8516919880369609e+00 2.3921505729538031e-01 0.0000000000000000e+00 0.000