<?xml version="1.0"?>
<VTKFile type="UnstructuredGrid"  version="0.1"  >
<UnstructuredGrid>
<Piece  NumberOfPoints="1089" NumberOfCells="2048">
<Points>
<DataArray  type="Float64"  NumberOfComponents="3"  format="ascii">0 0 0  0.03125 0 0  0.0625 0 0  0.09375 0 0  0.125 0 0  0.15625 0 0  0.1875 0 0  0.21875 0 0  0.25 0 0  0.28125 0 0  0.3125 0 0  0.34375 0 0  0.375 0 0  0.40625 0 0  0.4375 0 0  0.46875 0 0  0.5 0 0  0.53125 0 0  0.5625 0 0  0.59375 0 0  0.625 0 0  0.65625 0 0  0.6875 0 0  0.71875 0 0  0.75 0 0  0.78125 0 0  0.8125 0 0  0.84375 0 0  0.875 0 0  0.90625 0 0  0.9375 0 0  0.96875 0 0  1 0 0  0 0.03125 0  0.03125 0.03125 0  0.0625 0.03125 0  0.09375 0.03125 0  0.125 0.03125 0  0.15625 0.03125 0  0.1875 0.03125 0  0.21875 0.03125 0  0.25 0.03125 0  0.28125 0.03125 0  0.3125 0.03125 0  0.34375 0.03125 0  0.375 0.03125 0  0.40625 0.03125 0  0.4375 0.03125 0  0.46875 0.03125 0  0.5 0.03125 0  0.53125 0.03125 0  0.5625 0.03125 0  0.59375 0.03125 0  0.625 0.03125 0  0.65625 0.03125 0  0.6875 0.03125 0  0.71875 0.03125 0  0.75 0.03125 0  0.78125 0.03125 0  0.8125 0.03125 0  0.84375 0.03125 0  0.875 0.03125 0  0.90625 0.03125 0  0.9375 0.03125 0  0.96875 0.03125 0  1 0.03125 0  0 0.0625 0  0.03125 0.0625 0  0.0625 0.0625 0  0.09375 0.0625 0  0.125 0.0625 0  0.15625 0.0625 0  0.1875 0.0625 0  0.21875 0.0625 0  0.25 0.0625 0  0.28125 0.0625 0  0.3125 0.0625 0  0.34375 0.0625 0  0.375 0.0625 0  0.40625 0.0625 0  0.4375 0.0625 0  0.46875 0.0625 0  0.5 0.0625 0  0.53125 0.0625 0  0.5625 0.0625 0  0.59375 0.0625 0  0.625 0.0625 0  0.65625 0.0625 0  0.6875 0.0625 0  0.71875 0.0625 0  0.75 0.0625 0  0.78125 0.0625 0  0.8125 0.0625 0  0.84375 0.0625 0  0.875 0.0625 0  0.90625 0.0625 0  0.9375 0.0625 0  0.96875 0.0625 0  1 0.0625 0  0 0.09375 0  0.03125 0.09375 0  0.0625 0.09375 0  0.09375 0.09375 0  0.125 0.09375 0  0.15625 0.09375 0  0.1875 0.09375 0  0.21875 0.09375 0  0.25 0.09375 0  0.28125 0.09375 0  0.3125 0.09375 0  0.34375 0.09375 0  0.375 0.09375 0  0.40625 0.09375 0  0.4375 0.09375 0  0.46875 0.09375 0  0.5 0.09375 0  0.53125 0.09375 0  0.5625 0.09375 0  0.59375 0.09375 0  0.625 0.09375 0  0.65625 0.09375 0  0.6875 0.09375 0  0.71875 0.09375 0  0.75 0.09375 0  0.78125 0.09375 0  0.8125 0.09375 0  0.84375 0.09375 0  0.875 0.09375 0  0.90625 0.09375 0  0.9375 0.09375 0  0.96875 0.09375 0  1 0.09375 0  0 0.125 0  0.03125 0.125 0  0.0625 0.125 0  0.09375 0.125 0  0.125 0.125 0  0.15625 0.125 0  0.1875 0.125 0  0.21875 0.125 0  0.25 0.125 0  0.28125 0.125 0  0.3125 0.125 0  0.34375 0.125 0  0.375 0.125 0  0.40625 0.125 0  0.4375 0.125 0  0.46875 0.125 0  0.5 0.125 0  0.53125 0.125 0  0.5625 0.125 0  0.59375 0.125 0  0.625 0.125 0  0.65625 0.125 0  0.6875 0.125 0  0.71875 0.125 0  0.75 0.125 0  0.78125 0.125 0  0.8125 0.125 0  0.84375 0.125 0  0.875 0.125 0  0.90625 0.125 0  0.9375 0.125 0  0.96875 0.125 0  1 0.125 0  0 0.15625 0  0.03125 0.15625 0  0.0625 0.15625 0  0.09375 0.15625 0  0.125 0.15625 0  0.15625 0.15625 0  0.1875 0.15625 0  0.21875 0.15625 0  0.25 0.15625 0  0.28125 0.15625 0  0.3125 0.15625 0  0.34375 0.15625 0  0.375 0.15625 0  0.40625 0.15625 0  0.4375 0.15625 0  0.46875 0.15625 0  0.5 0.15625 0  0.53125 0.15625 0  0.5625 0.15625 0  0.59375 0.15625 0  0.625 0.15625 0  0.65625 0.15625 0  0.6875 0.15625 0  0.71875 0.15625 0  0.75 0.15625 0  0.78125 0.15625 0  0.8125 0.15625 0  0.84375 0.15625 0  0.875 0.15625 0  0.90625 0.15625 0  0.9375 0.15625 0  0.96875 0.15625 0  1 0.15625 0  0 0.1875 0  0.03125 0.1875 0  0.0625 0.1875 0  0.09375 0.1875 0  0.125 0.1875 0  0.15625 0.1875 0  0.1875 0.1875 0  0.21875 0.1875 0  0.25 0.1875 0  0.28125 0.1875 0  0.3125 0.1875 0  0.34375 0.1875 0  0.375 0.1875 0  0.40625 0.1875 0  0.4375 0.1875 0  0.46875 0.1875 0  0.5 0.1875 0  0.53125 0.1875 0  0.5625 0.1875 0  0.59375 0.1875 0  0.625 0.1875 0  0.65625 0.1875 0  0.6875 0.1875 0  0.71875 0.1875 0  0.75 0.1875 0  0.78125 0.1875 0  0.8125 0.1875 0  0.84375 0.1875 0  0.875 0.1875 0  0.90625 0.1875 0  0.9375 0.1875 0  0.96875 0.1875 0  1 0.1875 0  0 0.21875 0  0.03125 0.21875 0  0.0625 0.21875 0  0.09375 0.21875 0  0.125 0.21875 0  0.15625 0.21875 0  0.1875 0.21875 0  0.21875 0.21875 0  0.25 0.21875 0  0.28125 0.21875 0  0.3125 0.21875 0  0.34375 0.21875 0  0.375 0.21875 0  0.40625 0.21875 0  0.4375 0.21875 0  0.46875 0.21875 0  0.5 0.21875 0  0.53125 0.21875 0  0.5625 0.21875 0  0.59375 0.21875 0  0.625 0.21875 0  0.65625 0.21875 0  0.6875 0.21875 0  0.71875 0.21875 0  0.75 0.21875 0  0.78125 0.21875 0  0.8125 0.21875 0  0.84375 0.21875 0  0.875 0.21875 0  0.90625 0.21875 0  0.9375 0.21875 0  0.96875 0.21875 0  1 0.21875 0  0 0.25 0  0.03125 0.25 0  0.0625 0.25 0  0.09375 0.25 0  0.125 0.25 0  0.15625 0.25 0  0.1875 0.25 0  0.21875 0.25 0  0.25 0.25 0  0.28125 0.25 0  0.3125 0.25 0  0.34375 0.25 0  0.375 0.25 0  0.40625 0.25 0  0.4375 0.25 0  0.46875 0.25 0  0.5 0.25 0  0.53125 0.25 0  0.5625 0.25 0  0.59375 0.25 0  0.625 0.25 0  0.65625 0.25 0  0.6875 0.25 0  0.71875 0.25 0  0.75 0.25 0  0.78125 0.25 0  0.8125 0.25 0  0.84375 0.25 0  0.875 0.25 0  0.90625 0.25 0  0.9375 0.25 0  0.96875 0.25 0  1 0.25 0  0 0.28125 0  0.03125 0.28125 0  0.0625 0.28125 0  0.09375 0.28125 0  0.125 0.28125 0  0.15625 0.28125 0  0.1875 0.28125 0  0.21875 0.28125 0  0.25 0.28125 0  0.28125 0.28125 0  0.3125 0.28125 0  0.34375 0.28125 0  0.375 0.28125 0  0.40625 0.28125 0  0.4375 0.28125 0  0.46875 0.28125 0  0.5 0.28125 0  0.53125 0.28125 0  0.5625 0.28125 0  0.59375 0.28125 0  0.625 0.28125 0  0.65625 0.28125 0  0.6875 0.28125 0  0.71875 0.28125 0  0.75 0.28125 0  0.78125 0.28125 0  0.8125 0.28125 0  0.84375 0.28125 0  0.875 0.28125 0  0.90625 0.28125 0  0.9375 0.28125 0  0.96875 0.28125 0  1 0.28125 0  0 0.3125 0  0.03125 0.3125 0  0.0625 0.3125 0  0.09375 0.3125 0  0.125 0.3125 0  0.15625 0.3125 0  0.1875 0.3125 0  0.21875 0.3125 0  0.25 0.3125 0  0.28125 0.3125 0  0.3125 0.3125 0  0.34375 0.3125 0  0.375 0.3125 0  0.40625 0.3125 0  0.4375 0.3125 0  0.46875 0.3125 0  0.5 0.3125 0  0.53125 0.3125 0  0.5625 0.3125 0  0.59375 0.3125 0  0.625 0.3125 0  0.65625 0.3125 0  0.6875 0.3125 0  0.71875 0.3125 0  0.75 0.3125 0  0.78125 0.3125 0  0.8125 0.3125 0  0.84375 0.3125 0  0.875 0.3125 0  0.90625 0.3125 0  0.9375 0.3125 0  0.96875 0.3125 0  1 0.3125 0  0 0.34375 0  0.03125 0.34375 0  0.0625 0.34375 0  0.09375 0.34375 0  0.125 0.34375 0  0.15625 0.34375 0  0.1875 0.34375 0  0.21875 0.34375 0  0.25 0.34375 0  0.28125 0.34375 0  0.3125 0.34375 0  0.34375 0.34375 0  0.375 0.34375 0  0.40625 0.34375 0  0.4375 0.34375 0  0.46875 0.34375 0  0.5 0.34375 0  0.53125 0.34375 0  0.5625 0.34375 0  0.59375 0.34375 0  0.625 0.34375 0  0.65625 0.34375 0  0.6875 0.34375 0  0.71875 0.34375 0  0.75 0.34375 0  0.78125 0.34375 0  0.8125 0.34375 0  0.84375 0.34375 0  0.875 0.34375 0  0.90625 0.34375 0  0.9375 0.34375 0  0.96875 0.34375 0  1 0.34375 0  0 0.375 0  0.03125 0.375 0  0.0625 0.375 0  0.09375 0.375 0  0.125 0.375 0  0.15625 0.375 0  0.1875 0.375 0  0.21875 0.375 0  0.25 0.375 0  0.28125 0.375 0  0.3125 0.375 0  0.34375 0.375 0  0.375 0.375 0  0.40625 0.375 0  0.4375 0.375 0  0.46875 0.375 0  0.5 0.375 0  0.53125 0.375 0  0.5625 0.375 0  0.59375 0.375 0  0.625 0.375 0  0.65625 0.375 0  0.6875 0.375 0  0.71875 0.375 0  0.75 0.375 0  0.78125 0.375 0  0.8125 0.375 0  0.84375 0.375 0  0.875 0.375 0  0.90625 0.375 0  0.9375 0.375 0  0.96875 0.375 0  1 0.375 0  0 0.40625 0  0.03125 0.40625 0  0.0625 0.40625 0  0.09375 0.40625 0  0.125 0.40625 0  0.15625 0.40625 0  0.1875 0.40625 0  0.21875 0.40625 0  0.25 0.40625 0  0.28125 0.40625 0  0.3125 0.40625 0  0.34375 0.40625 0  0.375 0.40625 0  0.40625 0.40625 0  0.4375 0.40625 0  0.46875 0.40625 0  0.5 0.40625 0  0.53125 0.40625 0  0.5625 0.40625 0  0.59375 0.40625 0  0.625 0.40625 0  0.65625 0.40625 0  0.6875 0.40625 0  0.71875 0.40625 0  0.75 0.40625 0  0.78125 0.40625 0  0.8125 0.40625 0  0.84375 0.40625 0  0.875 0.40625 0  0.90625 0.40625 0  0.9375 0.40625 0  0.96875 0.40625 0  1 0.40625 0  0 0.4375 0  0.03125 0.4375 0  0.0625 0.4375 0  0.09375 0.4375 0  0.125 0.4375 0  0.15625 0.4375 0  0.1875 0.4375 0  0.21875 0.4375 0  0.25 0.4375 0  0.28125 0.4375 0  0.3125 0.4375 0  0.34375 0.4375 0  0.375 0.4375 0  0.40625 0.4375 0  0.4375 0.4375 0  0.46875 0.4375 0  0.5 0.4375 0  0.53125 0.4375 0  0.5625 0.4375 0  0.59375 0.4375 0  0.625 0.4375 0  0.65625 0.4375 0  0.6875 0.4375 0  0.71875 0.4375 0  0.75 0.4375 0  0.78125 0.4375 0  0.8125 0.4375 0  0.84375 0.4375 0  0.875 0.4375 0  0.90625 0.4375 0  0.9375 0.4375 0  0.96875 0.4375 0  1 0.4375 0  0 0.46875 0  0.03125 0.46875 0  0.0625 0.46875 0  0.09375 0.46875 0  0.125 0.46875 0  0.15625 0.46875 0  0.1875 0.46875 0  0.21875 0.46875 0  0.25 0.46875 0  0.28125 0.46875 0  0.3125 0.46875 0  0.34375 0.46875 0  0.375 0.46875 0  0.40625 0.46875 0  0.4375 0.46875 0  0.46875 0.46875 0  0.5 0.46875 0  0.53125 0.46875 0  0.5625 0.46875 0  0.59375 0.46875 0  0.625 0.46875 0  0.65625 0.46875 0  0.6875 0.46875 0  0.71875 0.46875 0  0.75 0.46875 0  0.78125 0.46875 0  0.8125 0.46875 0  0.84375 0.46875 0  0.875 0.46875 0  0.90625 0.46875 0  0.9375 0.46875 0  0.96875 0.46875 0  1 0.46875 0  0 0.5 0  0.03125 0.5 0  0.0625 0.5 0  0.09375 0.5 0  0.125 0.5 0  0.15625 0.5 0  0.1875 0.5 0  0.21875 0.5 0  0.25 0.5 0  0.28125 0.5 0  0.3125 0.5 0  0.34375 0.5 0  0.375 0.5 0  0.40625 0.5 0  0.4375 0.5 0  0.46875 0.5 0  0.5 0.5 0  0.53125 0.5 0  0.5625 0.5 0  0.59375 0.5 0  0.625 0.5 0  0.65625 0.5 0  0.6875 0.5 0  0.71875 0.5 0  0.75 0.5 0  0.78125 0.5 0  0.8125 0.5 0  0.84375 0.5 0  0.875 0.5 0  0.90625 0.5 0  0.9375 0.5 0  0.96875 0.5 0  1 0.5 0  0 0.53125 0  0.03125 0.53125 0  0.0625 0.53125 0  0.09375 0.53125 0  0.125 0.53125 0  0.15625 0.53125 0  0.1875 0.53125 0  0.21875 0.53125 0  0.25 0.53125 0  0.28125 0.53125 0  0.3125 0.53125 0  0.34375 0.53125 0  0.375 0.53125 0  0.40625 0.53125 0  0.4375 0.53125 0  0.46875 0.53125 0  0.5 0.53125 0  0.53125 0.53125 0  0.5625 0.53125 0  0.59375 0.53125 0  0.625 0.53125 0  0.65625 0.53125 0  0.6875 0.53125 0  0.71875 0.53125 0  0.75 0.53125 0  0.78125 0.531
[...]
<PointData  Tensors="f_1456"> 
<DataArray  type="Float64"  Name="f_1456"  NumberOfComponents="9" format="ascii">-9.9932109880571163e-01 3.1481251987873544e+00 0.0000000000000000e+00 -3.1478568815785537e+00 -1.0095314663021324e+00 0.0000000000000000e+00 0.0000000000000000e+00 0.0000000000000000e+00 0.0000000000000000e+00  -9.7944106517758023e-01 3.1332051773692200e+00 0.0000000000000000e+00 -3.1309470676399682e+00 -9.9397957840865603e-01 0.0000000000000000e+00 0.0000000000000000e+00 0.0000000000000000e+00 0.0000000000000000e+00  -9.2254607486219475e-01 3.0878626034947252e+00 0.0000000000000000e+00 -3.0856436951719552e+00 -9.5135536854355363e-01 0.0000000000000000e+00 0.0000000000000000e+00 0.0000000000000000e+00 0.0000000000000000e+00  -8.3010852120514833e-01 3.0128108838669609e+00 0.0000000000000000e+00 -3.0106173878246607e+00 -8.8197901427734893e-01 0.0000000000000000e+00 0.0000000000000000e+00 0.0000000000000000e+00 0.0000000000000000e+00  -7.0569491505547677e-01 2.9087310373823989e+00 0.0000000000000000e+00 -2.9066042253432758e+00 -7.8850922727085726e-01 0.0000000000000000e+00 0.0000000000000000e+00 0.0000000000000000e+00 0.0000000000000000e+00  -5.5408432509387839e-01 2.7766199351088732e+00 0.0000000000000000e+00 -2.7746050980471741e+00 -6.7452819500751260e-01 0.0000000000000000e+00 0.0000000000000000e+00 0.0000000000000000e+00 0.0000000000000000e+00  -3.8110556663034134e-01 2.6177481408996432e+00 0.0000000000000000e+00 -2.6158902936321176e+00 -5.4440741464527875e-01 0.0000000000000000e+00 0.0000000000000000e+00 0.0000000000000000e+00 0.0000000000000000e+00  -1.9341004390429389e-01 2.4336457008253083e+00 0.0000000000000000e+00 -2.4319872570094931e+00 -4.0313766759104541e-01 0.0000000000000000e+00 0.0000000000000000e+00 0.0000000000000000e+00 0.0000000000000000e+00  1.7845492918683202e-03 2.2260868214073550e+00 0.0000000000000000e+00 -2.2246659114291356e+00 -2.5613704936129089e-01 0.0000000000000000e+00 0.0000000000000000e+00 0.0000000000000000e+00 0.0000000000000000e+00  1.9697177808754882e-01 1.9970725141777099e+00 0.0000000000000000e+00 -1.9959216651988494e+00 -1.0904278955738021e-01 0.0000000000000000e+00 0.0000000000000000e+00 0.0000000000000000e+00 0.0000000000000000e+00  3.8464502311272170e-01 1.7488111548905432e+00 0.0000000000000000e+00 -1.7479562445567463e+00 3.2505292804263466e-02 0.0000000000000000e+00 0.0000000000000000e+00 0.0000000000000000e+00 0.0000000000000000e+00  5.5758602357069686e-01 1.4836970674570311e+00 0.0000000000000000e+00 -1.4831565376630524e+00 1.6308140881388811e-01 0.0000000000000000e+00 0.0000000000000000e+00 0.0000000000000000e+00 0.0000000000000000e+00  7.0914233461573783e-01 1.2042873145061495e+00 0.0000000000000000e+00 -1.2040716526625601e+00 2.7768218046028187e-01 0.0000000000000000e+00 0.0000000000000000e+00 0.0000000000000000e+00 0.0000000000000000e+00  8.3348304123588579e-01 9.1327691241651476e-01 0.0000000000000000e+00 -9.1338840935849264e-01 3.7191877955799629e-01 0.0000000000000000e+00 0.0000000000000000e+00 0.0000000000000000e+00 0.0000000000000000e+00  9.2582290278968615e-01 6.1347271118656421e-01 0.0000000000000000e+00 -6.1390549912485159e-01 4.4218544295513501e-01 0.0000000000000000e+00 0.0000000000000000e+00 0.0000000000000000e+00 0.0000000000000000e+00  9.8260631474546301e-01 3.0776619490984153e-01 0.0000000000000000e+00 -3.0850656059166254e-01 4.8579789067657941e-01 0.0000000000000000e+00 0.0000000000000000e+00 0.0000000000000000e+00 0.0000000000000000e+00  1.0016440174954542e+00 -8.9452945256908391e-04 0.0000000000000000e+00 -1.3242935195532078e-04 5.0109632864426412e-01 0.0000000000000000e+00 0.0000000000000000e+00 0.0000000000000000e+00 0.0000000000000000e+00  9.8219729806108236e-01 -3.0953327921186102e-01 0.0000000000000000e+00 3.0824717183229089e-01 4.8750907931461712e-01 0.0000000000000000e+00 0.0000000000000000e+00 0.0000000000000000e+00 0.0000000000000000e+00  9.2500644819343103e-01 -6.1517459828386833e-01 0.0000000000000000e+00 6.1366223010281684e-01 4.4557439635629442e-01 0.0000000000000000e+00 0.0000000000000000e+00 0.0000000000000000e+00 0.0000000000000000e+00  8.3226238445939960e-01 -9.1487253192108353e-01 0.0000000000000000e+00 9.1317105153587441e-01 3.7691962635451737e-01 0.0000000000000000e+00 0.0000000000000000e+00 0.0000000000000000e+00 0.0000000000000000e+00  7.0752252013634231e-01 -1.2057390920690545e+00 0.0000000000000000e+00 1.2038886063322030e+00 2.8419851967227516e-01 0.0000000000000000e+00 0.0000000000000000e+00 0.0000000000000000e+00 0.0000000000000000e+00  5.5557412109964444e-01 -1.4849721354287415e+00 0.0000000000000000e+00 1.4830143365795936e+00 1.7098910084932575e-01 0.0000000000000000e+00 0.0000000000000000e+00 0.0000000000000000e+00 0.0000000000000000e+00  3.8225039603507149e-01 -1.7498823828955412e+00 0.0000000000000000e+00 1.7478591578718279e+00 4.1656024532215653e-02 0.0000000000000000e+00 0.0000000000000000e+00 0.0000000000000000e+00 0.0000000000000000e+00  1.9420638767495466e-01 -1.9979193181088719e+00 0.0000000000000000e+00 1.9958713935856858e+00 -9.8817292399967310e-02 0.0000000000000000e+00 0.0000000000000000e+00 0.0000000000000000e+00 0.0000000000000000e+00  -1.3367234830163239e-03 -2.2266957138297347e+00 0.0000000000000000e+00 2.2246613907518960e+00 -2.4502031062990504e-01 0.0000000000000000e+00 0.0000000000000000e+00 0.0000000000000000e+00 0.0000000000000000e+00  -1.9686907786940089e-01 -2.4340105465771376e+00 0.0000000000000000e+00 2.4320245792258599e+00 -3.9132341532664899e-01 0.0000000000000000e+00 0.0000000000000000e+00 0.0000000000000000e+00 0.0000000000000000e+00  -3.8488069775016881e-01 -2.6178700685535716e+00 0.0000000000000000e+00 2.6159627517059101e+00 -5.3209437683455718e-01 0.0000000000000000e+00 0.0000000000000000e+00 0.0000000000000000e+00 0.0000000000000000e+00  -5.5815007329950916e-01 -2.7765067949224362e+00 0.0000000000000000e+00 2.7747033643013550e+00 -6.6191492239094196e-01 0.0000000000000000e+00 0.0000000000000000e+00 0.0000000000000000e+00 0.0000000000000000e+00  -7.1002175795360833e-01 -2.9083960307929333e+00 0.0000000000000000e+00 2.9067166949616041e+00 -7.7578925181675351e-01 0.0000000000000000e+00 0.0000000000000000e+00 0.0000000000000000e+00 0.0000000000000000e+00  -8.3466233822150215e-01 -3.0122687938757307e+00 0.0000000000000000e+00 3.0107306406755350e+00 -8.6933753757714960e-01 0.0000000000000000e+00 0.0000000000000000e+00 0.0000000000000000e+00 0.0000000000000000e+00  -9.2727837649591072e-01 -3.0871305138007399e+00 0.0000000000000000e+00 3.0857375920856742e+00 -9.3896436930685401e-01 0.0000000000000000e+00 0.0000000000000000e+00 0.0000000000000000e+00 0.0000000000000000e+00  -9.8417275408903404e-01 -3.1323649046090272e+00 0.0000000000000000e+00 3.1309871890583540e+00 -9.8172052036318658e-01 0.0000000000000000e+00 0.0000000000000000e+00 0.0000000000000000e+00 0.0000000000000000e+00  -9.9866612032619884e-01 -3.1449588314985757e+00 0.0000000000000000e+00 3.1454382557395384e+00 -1.0028520307214182e+00 0.0000000000000000e+00 0.0000000000000000e+00 0.0000000000000000e+00 0.0000000000000000e+00  -1.0343122139888474e+00 3.1326966503545015e+00 0.0000000000000000e+00 -3.1325589861601051e+00 -1.0403600092935212e+00 0.0000000000000000e+00 0.0000000000000000e+00 0.0000000000000000e+00 0.0000000000000000e+00  -1.0446969961554151e+00 3.1226004542309060e+00 0.0000000000000000e+00 -3.1111914702713581e+00 -9.9442271885242350e-01 0.0000000000000000e+00 0.0000000000000000e+00 0.0000000000000000e+00 0.0000000000000000e+00  -1.0158722341641961e+00 3.0821008064480160e+00 0.0000000000000000e+00 -3.0615129472126350e+00 -9.1992547415151593e-01 0.0000000000000000e+00 0.0000000000000000e+00 0.0000000000000000e+00 0.0000000000000000e+00  -9.4966988558626009e-01 3.0116473016508469e+00 0.0000000000000000e+00 -2.9826027375859732e+00 -8.1805708270240141e-01 0.0000000000000000e+00 0.0000000000000000e+00 0.0000000000000000e+00 0.0000000000000000e+00  -8.4955833184666962e-01 2.9117707172080487e+00 0.0000000000000000e+00 -2.8753664383783160e+00 -6.9187516422869877e-01 0.0000000000000000e+00 0.0000000000000000e+00 0.0000000000000000e+00 0.0000000000000000e+00  -7.2020328672070144e-01 2.7833282144992526e+00 0.0000000000000000e+00 -2.7409384272438948e+00 -5.4539499290177107e-01 0.0000000000000000e+00 0.0000000000000000e+00 0.0000000000000000e+00 0.0000000000000000e+00  -5.6736519529910034e-01 2.6274691032196351e+00 0.0000000000000000e+00 -2.5806992450357686e+00 -3.8344836131490351e-01 0.0000000000000000e+00 0.0000000000000000e+00 0.0000000000000000e+00 0.0000000000000000e+00  -3.9766891783702557e-01 2.4456294821793079e+00 0.0000000000000000e+00 -2.3962560801683654e+00 -2.1150140338768020e-01 0.0000000000000000e+00 0.0000000000000000e+00 0.0000000000000000e+00 0.0000000000000000e+00  -2.1834092995493104e-01 2.2395214849635763e+00 0.0000000000000000e+00 -2.1894244945843186e+00 -3.5451148736805216e-02 0.0000000000000000e+00 0.0000000000000000e+00 0.0000000000000000e+00 0.0000000000000000e+00  -3.6924439263236644e-02 2.0111184425638435e+00 0.0000000000000000e+00 -1.9622093287837503e+00 1.3859441150382149e-01 0.0000000000000000e+00 0.0000000000000000e+00 0.0000000000000000e+00 0.0000000000000000e+00  1.3901691561046056e-01 1.7626363575059061e+00 0.0000000000000000e+00 -1.7167848649188653e+00 3.0454476428434879e-01 0.0000000000000000e+00 0.0000000000000000e+00 0.0000000000000000e+00 0.0000000000000000e+00  3.0219548933859736e-01 1.4965119378402119e+00 0.0000000000000000e+00 -1.4554744112391678e+00 4.5655518636209708e-01 0.0000000000000000e+00 0.0000000000000000e+00 0.0000000000000000e+00 0.0000000000000000e+00  4.4588478386417457e-01 1.2153774482925834e+00 0.0000000000000000e+00 -1.1807294707085243e+00 5.8924623009541333e-01 0.0000000000000000e+00 0.0000000000000000e+00 0.0000000000000000e+00 0.0000000000000000e+00  5.6418234618552687e-01 9.2203269275778821e-01 0.0000000000000000e+00 -8.9510862876231456e-01 6.9790600636538924e-01 0.0000000000000000e+00 0.0000000000000000e+00 0.0000000000000000e+00 0.0000000000000000e+00  6.5224026545799918e-01 6.1941449661324710e-01 0.0000000000000000e+00 -6.0125627173687435e-01 7.7866752953158425e-01 0.0000000000000000e+00 0.0000000000000000e+00 0.0000000000000000e+00 0.0000000000000000e+00  7.0645438972008545e-01 3.1056412745022260e-01 0.0000000000000000e+00 -3.0188120168979315e-01 8.2865435579297397e-01 0.0000000000000000e+00 0.0000000000000000e+00 0.0000000000000000e+00 0.0000000000000000e+00  7.2460495383429557e-01 -1.4068738596178789e-03 0.0000000000000000e+00 2.6479394833965332e-04 8.4608893704296573e-01 0.0000000000000000e+00 0.0000000000000000e+00 0.0000000000000000e+00 0.0000000000000000e+00  7.0594320020097823e-01 -3.1335193134348732e-01 0.0000000000000000e+00 3.0240839630261179e-01 8.3035955302218556e-01 0.0000000000000000e+00 0.0000000000000000e+00 0.0000000000000000e+00 0.0000000000000000e+00  6.5122064923716250e-01 -6.2212520027975915e-01 0.0000000000000000e+00 6.0177621797838454e-01 7.8204326081412656e-01 0.0000000000000000e+00 0.0000000000000000e+00 0.0000000000000000e+00 0.0000000000000000e+00  5.6265989021299201e-01 -9.2461730714077150e-01 0.0000000000000000e+00 8.9561627014538803e-01 7.0288398516668105e-01 0.0000000000000000e+00 0.0000000000000000e+00 0.0000000000000000e+00 0.0000000000000000e+00  4.4386801813025167e-01 -1.2177905096203201e+00 0.0000000000000000e+00 1.1812194284469080e+00 5.9572658883381546e-01 0.0000000000000000e+00 0.0000000000000000e+00 0.0000000000000000e+00 0.0000000000000000e+00  2.9969605438133512e-01 -1.4987127375886140e+00 0.0000000000000000e+00 1.4559408845301220e+00 4.6440944587371080e-01 0.0000000000000000e+00 0.0000000000000000e+00 0.0000000000000000e+00 0.0000000000000000e+00  1.3604977272241889e-01 -1.7645900030144264e+00 0.0000000000000000e+00 1.7172215547789487e+00 3.1361962772107960e-01 0.0000000000000000e+00 0.0000000000000000e+00 0.0000000000000000e+00 0.0000000000000000e+00  -4.0340772393410461e-02 -2.0127967059833405e+00 0.0000000000000000e+00 1.9626093960043014e+00 1.4871624093639904e-01 0.0000000000000000e+00 0.0000000000000000e+00 0.0000000000000000e+00 0.0000000000000000e+00  -2.2218412267512364e-01 -2.2409034135473385e+00 0.0000000000000000e+00 2.1897805503473755e+00 -2.4471328132104359e-02 0.0000000000000000e+00 0.0000000000000000e+00 0.0000000000000000e+00 0.0000000000000000e+00  -4.0191255069563336e-01 -2.4467017466375327e+00 0.0000000000000000e+00 2.3965602095050373e+00 -1.9986254989403290e-01 0.0000000000000000e+00 0.0000000000000000e+00 0.0000000000000000e+00 0.0000000000000000e+00  -5.7197843540640336e-01 -2.6282260764546685e+00 0.0000000000000000e+00 2.5809430518752476e+00 -3.7135389843776734e-01 0.0000000000000000e+00 0.0000000000000000e+00 0.0000000000000000e+00 0.0000000000000000e+00  -7.2515039461921627e-01 -2.7837718133387570e+00 0.0000000000000000e+00 2.7411130595115658e+00 -5.3304730556151259e-01 0.0000000000000000e+00 0.0000000000000000e+00 0.0000000000000000e+00 0.0000000000000000e+00  -8.5479756618286340e-01 -2.9119102724123742e+00 0.0000000000000000e+00 2.8754624109530269e+00 -6.7947018353662081e-01 0.0000000000000000e+00 0.0000000000000000e+00 0.0000000000000000e+00 0.0000000000000000e+00  -9.5515037256915936e-01 -3.0115012224106046e+00 0.0000000000000000e+00 2.9826086689655793e+00 -8.0577751627310235e-01 0.0000000000000000e+00 0.0000000000000000e+00 0.0000000000000000e+00 0.0000000000000000e+00  -1.0215270692923970e+00 -3.0817161204829602e+00 0.0000000000000000e+00 3.0614078804871108e+00 -9.0792087706075031e-01 0.0000000000000000e+00 0.0000000000000000e+00 0.0000000000000000e+00 0.0000000000000000e+00  -1.0504815808705190e+00 -3.1220888839538210e+00 0.0000000000000000e+00 3.1109913151946968e+00 -9.8264705190549473e-01 0.0000000000000000e+00 0.0000000000000000e+00 0.0000000000000000e+00 0.0000000000000000e+00  -1.0358847210791975e+00 -3.1302686034182181e+00 0.0000000000000000e+00 3.1299689635721069e+00 -1.0356822900571201e+00 0.0000000000000000e+00 0.0000000000000000e+00 0.0000000000000000e+00 0.0000000000000000e+00  -1.0815507916055500e+00 3.0874604206252894e+00 0.0000000000000000e+00 -3.0872438514809906e+00 -1.0730500699521073e+00 0.0000000000000000e+00 0.0000000000000000e+00 0.0000000000000000e+00 0.0000000000000000e+00  -1.1209656162140973e+00 3.0821785562055908e+00 0.0000000000000000e+00 -3.0614618843579713e+00 -9.9649193798618485e-01 0.0000000000000000e+00 0.0000000000000000e+00 0.0000000000000000e+00 0.0000000000000000e+00  -1.1195419787005760e+00 3.0467083253498028e+00 0.0000000000000000e+00 -3.0080087539363167e+00 -8.9012619326350817e-01 0.0000000000000000e+00 0.0000000000000000e+00 0.0000000000000000e+00 0.0000000000000000e+00  -1.0787356852764527e+00 2.9813761845906432e+00 0.0000000000000000e+00 -2.9260915975353097e+00 -7.5551296846034732e-01 0.0000000000000000e+00 0.0000000000000000e+00 0.0000000000000000e+00 0.0000000000000000e+00  -1.0018765738257909e+00 2.8865323621614007e+00 0.0000000000000000e+00 -2.8167634492314360e+00 -5.9615272006749187e-01 0.0000000000000000e+00 0.0000000000000000e+00 0.0000000000000000e+00 0.0000000000000000e+00  -8.9355871148681154e-01 2.7628786966130154e+00 0.0000000000000000e+00 -2.6812856786594272e+00 -4.1652621336765344e-01 0.0000000000000000e+00 0.0000000000000000e+00 0.0000000000000000e+00 0.0000000000000000e+00  -7.5951713097875950e-01 2.6114338583900225e+00 0.0000000000000000e+00 -2.5211338079851608e+00 -2.2195852904595301e-01 0.0000000000000000e+00 0.0000000000000000e+00 0.0000000000000000e+00 0.0000000000000000e+00  -6.0639529555762228e-01 2.4335292420531611e+00 0.0000000000000000e+00 -2.3379768202669826e+00 -1.8428723986486980e-02 0.0000000000000000e+00 0.0000000000000000e+00 0.0000000000000000e+00 0.0000000000000000e+00  -4.4147604884665931e-01 2.2308011538952304e+00 0.0000000000000000e+00 -2.1336564380706133e+00 1.8764593302344898e-01 0.0000000000000000e+00 0.0000000000000000e+00 0.0000000000000000e+00 0.0000000000000000e+00  -2.7238830425544353e-01 2.0051781613996349e+00 0.0000000000000000e+00 -1.9101663642659052e+00 3.8964325248693460e-01 0.0000000000000000e+00 0.0000000000000000e+00 0.0000000000000000e+00 0.0000000000000000e+00  -1.0680139967271363e-01 1.7588635061130706e+00 0.0000000000000000e+00 -1.6696320517914045e+00 5.8097819621495461e-01 0.0000000000000000e+00 0.0000000000000000e+00 0.0000000000000000e+00 0.0000000000000000e+00  4.7880941860717591e-02 1.4943127474782572e+00 0.0000000000000000e+00 -1.4142912505720355e+00 7.5534462548106485e-01 0.0000000000000000e+00 0.0000000000000000e+00 0.0000000000000000e+00 0.0000000000000000e+00  1.8481517062874300e-01 1.2142069194823013e+00 0.0000000000000000e+00 -1.1464754739081671e+00 9.0694757399439252e-01 0.0000000000000000e+00 0.0000000000000000e+00 0.0000000000000000e+00 0.0000000000000000e+00  2.9798957478331012e-01 9.2142159394097767e-01 0.0000000000000000e+00 -8.6859244321682738e-01 1.0307172292596409e+00 0.0000000000000000e+00 0.0000000000000000e+00 0.0000000000000000e+00 0.0000000000000000e+00  3.8246253223908488e-01 6.1899234284204507e-01 0.0000000000000000e+00 -5.8310948766607495e-01 1.1224964820351595e+00 0.0000000000000000e+00 0.0000000000000000e+00 0.0000000000000000e+00 0.0000000000000000e+00  4.3455812513786030e-01 3.1007720995454224e-01 0.0000000000000000e+00 -2.9253780745917191e-01 1.1791949167632794e+00 0.0000000000000000e+00 0.0000000000000000e+00 0.0000000000000000e+00 0.0000000000000000e+00  4.5201154501892249e-01 -2.0831413224636007e-03 0.0000000000000000e+00 5.8255921751879862e-04 1.1989033720067992e+00 0.0000000000000000e+00 0.0000000000000000e+00 0.0000000000000000e+00 0.0000000000000000e+00  4.3405866338846816e-01 -3.1420684686690087e-01 0.0000000000000000e+00 2.9369727150094288e-01 1.1809647149860107e+00 0.0000000000000000e+00 0.0000000000000000e+00 0.0000000000000000e+00 0.0000000000000000e+00  3.8146629961570894e-01 -6.2301304008645564e-01 0.0000000000000000e+00 5.8425196511977595e-01 1.1259981328092818e+00 0.0000000000000000e+00 0.0000000000000000e+00 0.0000000000000000e+00 0.0000000000000000e+00  2.9650201497863038e-01 -9.2526401498121980e-01 0.0000000000000000e+00 8.6970653478917226e-01 1.0358760164356533e+00 0.0000000000000000e+00 0.0000000000000000e+00 0.0000000000000000e+00 0.0000000000000000e+00  1.8284460073705683e-01 -1.2178065418531243e+00 0.0000000000000000e+00 1.1475496786038433e+00 9.1365431889388971e-01 0.0000000000000000e+00 0.0000000000000000e+00 0.0000000000000000e+00 0.0000000000000000e+00  4.5438723110339432e-02 -1.4976115482964616e+00 0.0000000000000000e+00 1.4153139453803023e+00 7.6345904155753519e-01 0.0000000000000000e+00 0.0000000000000000e+00 0.0000000000000000e+00 0.0000000000000000e+00  -1.0970065020593749e-01 -1.7618114255577020e+00 0.0000000000000000e+00 1.6705914909576327e+00 5.9033317280820241e-01 0.0000000000000000e+00 0.0000000000000000e+00 0.0000000000000000e+00 0.0000000000000000e+00  -2.7572647186541954e-01 -2.0077342888359873e+00 0.0000000000000000e+00 1.9110506989139207e+00 4.0004990821718023e-01 0.0000000000000000e+00 0.0000000000000000e+00 0.0000000000000000e+00 0.0000000000000000e+00  -4.4523126039653066e-01 -2.2329346075964942e+00 0.0000000000000000e+00 2.1344537569408728e+00 1.9889926295942417e-01 0.0000000000000000e+00 0.0000000000000000e+00 0.0000000000000000e+00 0.0000000000000000e+00  -6.1054164446211467e-01 -2.4352197265752316e+00 0.0000000000000000e+00 2.3386752044272856e+00 -6.5438028804154251e-03 0.0000000000000000e+00 0.0000000000000000e+00 0.0000000000000000e+00 0.0000000000000000e+00  -7.6402438408524942e-01 -2.6126719204188298e+00 0.0000000000000000e+00 2.5217213811962464e+00 -2.0966092240082493e-01 0.0000000000000000e+00 0.0000000000000000e+00 0.0000000000000000e+00 0.0000000000000000e+00  -8.9839199087467980e-01 -2.7636657737010735e+00 0.0000000000000000e+00 2.6817506112960561e+00 -4.0403231264444717e-01 0.0000000000000000e+00 0.0000000000000000e+00 0.0000000000000000e+00 0.0000000000000000e+00  -1.0069961090168549e+00 -2.8868808811197679e+00 0.0000000000000000e+00 2.8170938567141977e+00 -5.8366986644025098e-01 0.0000000000000000e+