<?xml version="1.0"?>
<VTKFile type="UnstructuredGrid"  version="0.1"  >
<UnstructuredGrid>
<Piece  NumberOfPoints="1089" NumberOfCells="2048">
<Points>
<DataArray  type="Float64"  NumberOfComponents="3"  format="ascii">0 0 0  0.03125 0 0  0.0625 0 0  0.09375 0 0  0.125 0 0  0.15625 0 0  0.1875 0 0  0.21875 0 0  0.25 0 0  0.28125 0 0  0.3125 0 0  0.34375 0 0  0.375 0 0  0.40625 0 0  0.4375 0 0  0.46875 0 0  0.5 0 0  0.53125 0 0  0.5625 0 0  0.59375 0 0  0.625 0 0  0.65625 0 0  0.6875 0 0  0.71875 0 0  0.75 0 0  0.78125 0 0  0.8125 0 0  0.84375 0 0  0.875 0 0  0.90625 0 0  0.9375 0 0  0.96875 0 0  1 0 0  0 0.03125 0  0.03125 0.03125 0  0.0625 0.03125 0  0.09375 0.03125 0  0.125 0.03125 0  0.15625 0.03125 0  0.1875 0.03125 0  0.21875 0.03125 0  0.25 0.03125 0  0.28125 0.03125 0  0.3125 0.03125 0  0.34375 0.03125 0  0.375 0.03125 0  0.40625 0.03125 0  0.4375 0.03125 0  0.46875 0.03125 0  0.5 0.03125 0  0.53125 0.03125 0  0.5625 0.03125 0  0.59375 0.03125 0  0.625 0.03125 0  0.65625 0.03125 0  0.6875 0.03125 0  0.71875 0.03125 0  0.75 0.03125 0  0.78125 0.03125 0  0.8125 0.03125 0  0.84375 0.03125 0  0.875 0.03125 0  0.90625 0.03125 0  0.9375 0.03125 0  0.96875 0.03125 0  1 0.03125 0  0 0.0625 0  0.03125 0.0625 0  0.0625 0.0625 0  0.09375 0.0625 0  0.125 0.0625 0  0.15625 0.0625 0  0.1875 0.0625 0  0.21875 0.0625 0  0.25 0.0625 0  0.28125 0.0625 0  0.3125 0.0625 0  0.34375 0.0625 0  0.375 0.0625 0  0.40625 0.0625 0  0.4375 0.0625 0  0.46875 0.0625 0  0.5 0.0625 0  0.53125 0.0625 0  0.5625 0.0625 0  0.59375 0.0625 0  0.625 0.0625 0  0.65625 0.0625 0  0.6875 0.0625 0  0.71875 0.0625 0  0.75 0.0625 0  0.78125 0.0625 0  0.8125 0.0625 0  0.84375 0.0625 0  0.875 0.0625 0  0.90625 0.0625 0  0.9375 0.0625 0  0.96875 0.0625 0  1 0.0625 0  0 0.09375 0  0.03125 0.09375 0  0.0625 0.09375 0  0.09375 0.09375 0  0.125 0.09375 0  0.15625 0.09375 0  0.1875 0.09375 0  0.21875 0.09375 0  0.25 0.09375 0  0.28125 0.09375 0  0.3125 0.09375 0  0.34375 0.09375 0  0.375 0.09375 0  0.40625 0.09375 0  0.4375 0.09375 0  0.46875 0.09375 0  0.5 0.09375 0  0.53125 0.09375 0  0.5625 0.09375 0  0.59375 0.09375 0  0.625 0.09375 0  0.65625 0.09375 0  0.6875 0.09375 0  0.71875 0.09375 0  0.75 0.09375 0  0.78125 0.09375 0  0.8125 0.09375 0  0.84375 0.09375 0  0.875 0.09375 0  0.90625 0.09375 0  0.9375 0.09375 0  0.96875 0.09375 0  1 0.09375 0  0 0.125 0  0.03125 0.125 0  0.0625 0.125 0  0.09375 0.125 0  0.125 0.125 0  0.15625 0.125 0  0.1875 0.125 0  0.21875 0.125 0  0.25 0.125 0  0.28125 0.125 0  0.3125 0.125 0  0.34375 0.125 0  0.375 0.125 0  0.40625 0.125 0  0.4375 0.125 0  0.46875 0.125 0  0.5 0.125 0  0.53125 0.125 0  0.5625 0.125 0  0.59375 0.125 0  0.625 0.125 0  0.65625 0.125 0  0.6875 0.125 0  0.71875 0.125 0  0.75 0.125 0  0.78125 0.125 0  0.8125 0.125 0  0.84375 0.125 0  0.875 0.125 0  0.90625 0.125 0  0.9375 0.125 0  0.96875 0.125 0  1 0.125 0  0 0.15625 0  0.03125 0.15625 0  0.0625 0.15625 0  0.09375 0.15625 0  0.125 0.15625 0  0.15625 0.15625 0  0.1875 0.15625 0  0.21875 0.15625 0  0.25 0.15625 0  0.28125 0.15625 0  0.3125 0.15625 0  0.34375 0.15625 0  0.375 0.15625 0  0.40625 0.15625 0  0.4375 0.15625 0  0.46875 0.15625 0  0.5 0.15625 0  0.53125 0.15625 0  0.5625 0.15625 0  0.59375 0.15625 0  0.625 0.15625 0  0.65625 0.15625 0  0.6875 0.15625 0  0.71875 0.15625 0  0.75 0.15625 0  0.78125 0.15625 0  0.8125 0.15625 0  0.84375 0.15625 0  0.875 0.15625 0  0.90625 0.15625 0  0.9375 0.15625 0  0.96875 0.15625 0  1 0.15625 0  0 0.1875 0  0.03125 0.1875 0  0.0625 0.1875 0  0.09375 0.1875 0  0.125 0.1875 0  0.15625 0.1875 0  0.1875 0.1875 0  0.21875 0.1875 0  0.25 0.1875 0  0.28125 0.1875 0  0.3125 0.1875 0  0.34375 0.1875 0  0.375 0.1875 0  0.40625 0.1875 0  0.4375 0.1875 0  0.46875 0.1875 0  0.5 0.1875 0  0.53125 0.1875 0  0.5625 0.1875 0  0.59375 0.1875 0  0.625 0.1875 0  0.65625 0.1875 0  0.6875 0.1875 0  0.71875 0.1875 0  0.75 0.1875 0  0.78125 0.1875 0  0.8125 0.1875 0  0.84375 0.1875 0  0.875 0.1875 0  0.90625 0.1875 0  0.9375 0.1875 0  0.96875 0.1875 0  1 0.1875 0  0 0.21875 0  0.03125 0.21875 0  0.0625 0.21875 0  0.09375 0.21875 0  0.125 0.21875 0  0.15625 0.21875 0  0.1875 0.21875 0  0.21875 0.21875 0  0.25 0.21875 0  0.28125 0.21875 0  0.3125 0.21875 0  0.34375 0.21875 0  0.375 0.21875 0  0.40625 0.21875 0  0.4375 0.21875 0  0.46875 0.21875 0  0.5 0.21875 0  0.53125 0.21875 0  0.5625 0.21875 0  0.59375 0.21875 0  0.625 0.21875 0  0.65625 0.21875 0  0.6875 0.21875 0  0.71875 0.21875 0  0.75 0.21875 0  0.78125 0.21875 0  0.8125 0.21875 0  0.84375 0.21875 0  0.875 0.21875 0  0.90625 0.21875 0  0.9375 0.21875 0  0.96875 0.21875 0  1 0.21875 0  0 0.25 0  0.03125 0.25 0  0.0625 0.25 0  0.09375 0.25 0  0.125 0.25 0  0.15625 0.25 0  0.1875 0.25 0  0.21875 0.25 0  0.25 0.25 0  0.28125 0.25 0  0.3125 0.25 0  0.34375 0.25 0  0.375 0.25 0  0.40625 0.25 0  0.4375 0.25 0  0.46875 0.25 0  0.5 0.25 0  0.53125 0.25 0  0.5625 0.25 0  0.59375 0.25 0  0.625 0.25 0  0.65625 0.25 0  0.6875 0.25 0  0.71875 0.25 0  0.75 0.25 0  0.78125 0.25 0  0.8125 0.25 0  0.84375 0.25 0  0.875 0.25 0  0.90625 0.25 0  0.9375 0.25 0  0.96875 0.25 0  1 0.25 0  0 0.28125 0  0.03125 0.28125 0  0.0625 0.28125 0  0.09375 0.28125 0  0.125 0.28125 0  0.15625 0.28125 0  0.1875 0.28125 0  0.21875 0.28125 0  0.25 0.28125 0  0.28125 0.28125 0  0.3125 0.28125 0  0.34375 0.28125 0  0.375 0.28125 0  0.40625 0.28125 0  0.4375 0.28125 0  0.46875 0.28125 0  0.5 0.28125 0  0.53125 0.28125 0  0.5625 0.28125 0  0.59375 0.28125 0  0.625 0.28125 0  0.65625 0.28125 0  0.6875 0.28125 0  0.71875 0.28125 0  0.75 0.28125 0  0.78125 0.28125 0  0.8125 0.28125 0  0.84375 0.28125 0  0.875 0.28125 0  0.90625 0.28125 0  0.9375 0.28125 0  0.96875 0.28125 0  1 0.28125 0  0 0.3125 0  0.03125 0.3125 0  0.0625 0.3125 0  0.09375 0.3125 0  0.125 0.3125 0  0.15625 0.3125 0  0.1875 0.3125 0  0.21875 0.3125 0  0.25 0.3125 0  0.28125 0.3125 0  0.3125 0.3125 0  0.34375 0.3125 0  0.375 0.3125 0  0.40625 0.3125 0  0.4375 0.3125 0  0.46875 0.3125 0  0.5 0.3125 0  0.53125 0.3125 0  0.5625 0.3125 0  0.59375 0.3125 0  0.625 0.3125 0  0.65625 0.3125 0  0.6875 0.3125 0  0.71875 0.3125 0  0.75 0.3125 0  0.78125 0.3125 0  0.8125 0.3125 0  0.84375 0.3125 0  0.875 0.3125 0  0.90625 0.3125 0  0.9375 0.3125 0  0.96875 0.3125 0  1 0.3125 0  0 0.34375 0  0.03125 0.34375 0  0.0625 0.34375 0  0.09375 0.34375 0  0.125 0.34375 0  0.15625 0.34375 0  0.1875 0.34375 0  0.21875 0.34375 0  0.25 0.34375 0  0.28125 0.34375 0  0.3125 0.34375 0  0.34375 0.34375 0  0.375 0.34375 0  0.40625 0.34375 0  0.4375 0.34375 0  0.46875 0.34375 0  0.5 0.34375 0  0.53125 0.34375 0  0.5625 0.34375 0  0.59375 0.34375 0  0.625 0.34375 0  0.65625 0.34375 0  0.6875 0.34375 0  0.71875 0.34375 0  0.75 0.34375 0  0.78125 0.34375 0  0.8125 0.34375 0  0.84375 0.34375 0  0.875 0.34375 0  0.90625 0.34375 0  0.9375 0.34375 0  0.96875 0.34375 0  1 0.34375 0  0 0.375 0  0.03125 0.375 0  0.0625 0.375 0  0.09375 0.375 0  0.125 0.375 0  0.15625 0.375 0  0.1875 0.375 0  0.21875 0.375 0  0.25 0.375 0  0.28125 0.375 0  0.3125 0.375 0  0.34375 0.375 0  0.375 0.375 0  0.40625 0.375 0  0.4375 0.375 0  0.46875 0.375 0  0.5 0.375 0  0.53125 0.375 0  0.5625 0.375 0  0.59375 0.375 0  0.625 0.375 0  0.65625 0.375 0  0.6875 0.375 0  0.71875 0.375 0  0.75 0.375 0  0.78125 0.375 0  0.8125 0.375 0  0.84375 0.375 0  0.875 0.375 0  0.90625 0.375 0  0.9375 0.375 0  0.96875 0.375 0  1 0.375 0  0 0.40625 0  0.03125 0.40625 0  0.0625 0.40625 0  0.09375 0.40625 0  0.125 0.40625 0  0.15625 0.40625 0  0.1875 0.40625 0  0.21875 0.40625 0  0.25 0.40625 0  0.28125 0.40625 0  0.3125 0.40625 0  0.34375 0.40625 0  0.375 0.40625 0  0.40625 0.40625 0  0.4375 0.40625 0  0.46875 0.40625 0  0.5 0.40625 0  0.53125 0.40625 0  0.5625 0.40625 0  0.59375 0.40625 0  0.625 0.40625 0  0.65625 0.40625 0  0.6875 0.40625 0  0.71875 0.40625 0  0.75 0.40625 0  0.78125 0.40625 0  0.8125 0.40625 0  0.84375 0.40625 0  0.875 0.40625 0  0.90625 0.40625 0  0.9375 0.40625 0  0.96875 0.40625 0  1 0.40625 0  0 0.4375 0  0.03125 0.4375 0  0.0625 0.4375 0  0.09375 0.4375 0  0.125 0.4375 0  0.15625 0.4375 0  0.1875 0.4375 0  0.21875 0.4375 0  0.25 0.4375 0  0.28125 0.4375 0  0.3125 0.4375 0  0.34375 0.4375 0  0.375 0.4375 0  0.40625 0.4375 0  0.4375 0.4375 0  0.46875 0.4375 0  0.5 0.4375 0  0.53125 0.4375 0  0.5625 0.4375 0  0.59375 0.4375 0  0.625 0.4375 0  0.65625 0.4375 0  0.6875 0.4375 0  0.71875 0.4375 0  0.75 0.4375 0  0.78125 0.4375 0  0.8125 0.4375 0  0.84375 0.4375 0  0.875 0.4375 0  0.90625 0.4375 0  0.9375 0.4375 0  0.96875 0.4375 0  1 0.4375 0  0 0.46875 0  0.03125 0.46875 0  0.0625 0.46875 0  0.09375 0.46875 0  0.125 0.46875 0  0.15625 0.46875 0  0.1875 0.46875 0  0.21875 0.46875 0  0.25 0.46875 0  0.28125 0.46875 0  0.3125 0.46875 0  0.34375 0.46875 0  0.375 0.46875 0  0.40625 0.46875 0  0.4375 0.46875 0  0.46875 0.46875 0  0.5 0.46875 0  0.53125 0.46875 0  0.5625 0.46875 0  0.59375 0.46875 0  0.625 0.46875 0  0.65625 0.46875 0  0.6875 0.46875 0  0.71875 0.46875 0  0.75 0.46875 0  0.78125 0.46875 0  0.8125 0.46875 0  0.84375 0.46875 0  0.875 0.46875 0  0.90625 0.46875 0  0.9375 0.46875 0  0.96875 0.46875 0  1 0.46875 0  0 0.5 0  0.03125 0.5 0  0.0625 0.5 0  0.09375 0.5 0  0.125 0.5 0  0.15625 0.5 0  0.1875 0.5 0  0.21875 0.5 0  0.25 0.5 0  0.28125 0.5 0  0.3125 0.5 0  0.34375 0.5 0  0.375 0.5 0  0.40625 0.5 0  0.4375 0.5 0  0.46875 0.5 0  0.5 0.5 0  0.53125 0.5 0  0.5625 0.5 0  0.59375 0.5 0  0.625 0.5 0  0.65625 0.5 0  0.6875 0.5 0  0.71875 0.5 0  0.75 0.5 0  0.78125 0.5 0  0.8125 0.5 0  0.84375 0.5 0  0.875 0.5 0  0.90625 0.5 0  0.9375 0.5 0  0.96875 0.5 0  1 0.5 0  0 0.53125 0  0.03125 0.53125 0  0.0625 0.53125 0  0.09375 0.53125 0  0.125 0.53125 0  0.15625 0.53125 0  0.1875 0.53125 0  0.21875 0.53125 0  0.25 0.53125 0  0.28125 0.53125 0  0.3125 0.53125 0  0.34375 0.53125 0  0.375 0.53125 0  0.40625 0.53125 0  0.4375 0.53125 0  0.46875 0.53125 0  0.5 0.53125 0  0.53125 0.53125 0  0.5625 0.53125 0  0.59375 0.53125 0  0.625 0.53125 0  0.65625 0.53125 0  0.6875 0.53125 0  0.71875 0.53125 0  0.75 0.53125 0  0.78125 0.531
[...]
<PointData  Vectors="f_1184-0-0"> 
<DataArray  type="Float64"  Name="f_1184-0-0"  NumberOfComponents="3" format="ascii">1.4497568217805904e-04 -1.2098112475962361e-04 0.0000000000000000e+00  2.8376297392753770e-04 -9.8330106739731610e-02 0.0000000000000000e+00  4.2101329412371196e-04 -1.9558796850534646e-01 0.0000000000000000e+00  5.5438756670017305e-04 -2.9096233198313259e-01 0.0000000000000000e+00  6.8245168380305339e-04 -3.8353459388947303e-01 0.0000000000000000e+00  8.0394197946815227e-04 -4.7241322569397382e-01 0.0000000000000000e+00  9.1768460664953398e-04 -5.5674227044779800e-01 0.0000000000000000e+00  1.0225875489347741e-03 -6.3570958606058914e-01 0.0000000000000000e+00  1.1176460921716229e-03 -7.0855466706207704e-01 0.0000000000000000e+00  1.2019509548623223e-03 -7.7457596877808288e-01 0.0000000000000000e+00  1.2746963556834123e-03 -8.3313766375097231e-01 0.0000000000000000e+00  1.3351873608759975e-03 -8.8367576529951974e-01 0.0000000000000000e+00  1.3828462796991422e-03 -9.2570355921022840e-01 0.0000000000000000e+00  1.4172179972731552e-03 -9.5881629122895706e-01 0.0000000000000000e+00  1.4379741818376936e-03 -9.8269506519933592e-01 0.0000000000000000e+00  1.4449163234517418e-03 -9.9710991429707485e-01 0.0000000000000000e+00  1.4379775765859366e-03 -1.0019220157790687e+00 0.0000000000000000e+00  1.4172233915116957e-03 -9.9708502791526954e-01 0.0000000000000000e+00  1.3828509280175050e-03 -9.8264553622779682e-01 0.0000000000000000e+00  1.3351872555302476e-03 -9.5874260474165052e-01 0.0000000000000000e+00  1.2746863530639745e-03 -9.2560643657234476e-01 0.0000000000000000e+00  1.2019249316110830e-03 -8.8355615675463695e-01 0.0000000000000000e+00  1.1175971107682148e-03 -8.3299673867064283e-01 0.0000000000000000e+00  1.0225079902161131e-03 -7.7441510368246969e-01 0.0000000000000000e+00  9.1756616537780268e-04 -7.0837543153327542e-01 0.0000000000000000e+00  8.0377524393774127e-04 -6.3551372666873562e-01 0.0000000000000000e+00  6.8222442031898897e-04 -5.5653169275334124e-01 0.0000000000000000e+00  5.5407812238406908e-04 -4.7218997412471575e-01 0.0000000000000000e+00  4.2056483192903289e-04 -3.8330082813121263e-01 0.0000000000000000e+00  2.8297166080050841e-04 -2.9072029660965210e-01 0.0000000000000000e+00  1.4269857268940479e-04 -1.9534005271307073e-01 0.0000000000000000e+00  1.3808762697745551e-06 -9.8079394291297931e-02 0.0000000000000000e+00  -3.6359596732990992e-05 -3.6359596733230309e-05 0.0000000000000000e+00  9.8351126795860444e-02 -2.6206598473130520e-04 0.0000000000000000e+00  9.8017138587449038e-02 -9.7995607520313777e-02 0.0000000000000000e+00  9.6738670576712593e-02 -1.9478223247411891e-01 0.0000000000000000e+00  9.4528331092816179e-02 -2.8969291226114957e-01 0.0000000000000000e+00  9.1407642710669951e-02 -3.8181359341744314e-01 0.0000000000000000e+00  8.7406632092811853e-02 -4.7025715698045817e-01 0.0000000000000000e+00  8.2563816813415097e-02 -5.5417185736612640e-01 0.0000000000000000e+00  7.6925836487446914e-02 -6.3274955191082849e-01 0.0000000000000000e+00  7.0546997019166252e-02 -7.0523349236846855e-01 0.0000000000000000e+00  6.3488743612902770e-02 -7.7092561594906617e-01 0.0000000000000000e+00  5.5819066766630794e-02 -8.2919326926971526e-01 0.0000000000000000e+00  4.7611846045026461e-02 -8.7947530168095467e-01 0.0000000000000000e+00  3.8946137523189803e-02 -9.2128746968902020e-01 0.0000000000000000e+00  2.9905411588521828e-02 -9.5422710057692606e-01 0.0000000000000000e+00  2.0576748372618744e-02 -9.7797697034251951e-01 0.0000000000000000e+00  1.1049998541508276e-02 -9.9230835866950517e-01 0.0000000000000000e+00  1.4169175301818936e-03 -9.9708325148624455e-01 0.0000000000000000e+00  -8.2297184382490330e-03 -9.9225566993179570e-01 0.0000000000000000e+00  -1.7797006025971104e-02 -9.7787211293340792e-01 0.0000000000000000e+00  -2.7192809534302548e-02 -9.5407110914404647e-01 0.0000000000000000e+00  -3.6326648118057345e-02 -9.2108188256565582e-01 0.0000000000000000e+00  -4.5110566915821639e-02 -8.7922214472051463e-01 0.0000000000000000e+00  -5.3459983706960139e-02 -8.2889503464605996e-01 0.0000000000000000e+00  -6.1294502937331595e-02 -7.7058523619774899e-01 0.0000000000000000e+00  -6.8538689252533175e-02 -7.0485431007348875e-01 0.0000000000000000e+00  -7.5122793017214654e-02 -6.3233528555460272e-01 0.0000000000000000e+00  -8.0983420610554885e-02 -5.5372656415288457e-01 0.0000000000000000e+00  -8.6064142301229302e-02 -4.6978519427684373e-01 0.0000000000000000e+00  -9.0316029269879194e-02 -3.8131958397397320e-01 0.0000000000000000e+00  -9.3698109711692443e-02 -2.8918173610308578e-01 0.0000000000000000e+00  -9.6177794107399170e-02 -1.9425915865407439e-01 0.0000000000000000e+00  -9.7731577527243318e-02 -9.7466172311475072e-02 0.0000000000000000e+00  -9.8147755687375909e-02 -8.1348477539292324e-05 0.0000000000000000e+00  1.9560888987358624e-01 -4.0042552598890650e-04 0.0000000000000000e+00  1.9480307032846886e-01 -9.6717783415174077e-02 0.0000000000000000e+00  1.9212129916782503e-01 -1.9210030901338462e-01 0.0000000000000000e+00  1.8758888454813857e-01 -2.8563299761026972e-01 0.0000000000000000e+00  1.8124974406071326e-01 -3.7641484179016665e-01 0.0000000000000000e+00  1.7316499485607892e-01 -4.6357155358770014e-01 0.0000000000000000e+00  1.6341252097860987e-01 -5.4626377417159067e-01 0.0000000000000000e+00  1.5208625814568821e-01 -6.2369513649991870e-01 0.0000000000000000e+00  1.3929529899457976e-01 -6.9511993478796164e-01 0.0000000000000000e+00  1.2516284392767307e-01 -7.5985030827550770e-01 0.0000000000000000e+00  1.0982501405524990e-01 -8.1726286715159713e-01 0.0000000000000000e+00  9.3429539319200297e-02 -8.6680469692276663e-01 0.0000000000000000e+00  7.6134334821530300e-02 -9.0799868367184922e-01 0.0000000000000000e+00  5.8105979154235841e-02 -9.4044810909015686e-01 0.0000000000000000e+00  3.9518109410459495e-02 -9.6384047110560878e-01 0.0000000000000000e+00  2.0549748332538975e-02 -9.7795049337646178e-01 0.0000000000000000e+00  1.3835797368507089e-03 -9.8264229466875341e-01 0.0000000000000000e+00  -1.7795811179728001e-02 -9.7787069726229925e-01 0.0000000000000000e+00  -3.6803715688475049e-02 -9.6368166178989978e-01 0.0000000000000000e+00  -5.5457080405255460e-02 -9.4021184433836613e-01 0.0000000000000000e+00  -7.3576270059557636e-02 -9.0768728009145438e-01 0.0000000000000000e+00  -9.0986797178368925e-02 -8.6642120620875718e-01 0.0000000000000000e+00  -1.0752100202643002e-01 -8.1681104492860512e-01 0.0000000000000000e+00  -1.2301966661939413e-01 -7.5933457598004384e-01 0.0000000000000000e+00  -1.3733354724918678e-01 -6.9454533521909878e-01 0.0000000000000000e+00  -1.5032481072073248e-01 -6.2306728391485677e-01 0.0000000000000000e+00  -1.6186836039518321e-01 -5.4558880029387913e-01 0.0000000000000000e+00  -1.7185303929405724e-01 -4.6285605192683899e-01 0.0000000000000000e+00  -1.8018270002321601e-01 -3.7566581455552411e-01 0.0000000000000000e+00  -1.8677714081805002e-01 -2.8485780740897154e-01 0.0000000000000000e+00  -1.9157294462846622e-01 -1.9130662415134714e-01 0.0000000000000000e+00  -1.9452421183233076e-01 -9.5913192074374889e-02 0.0000000000000000e+00  -1.9531452858652473e-01 -1.2708906359095099e-04 0.0000000000000000e+00  2.9098306230192322e-01 -5.3459603849863964e-04 0.0000000000000000e+00  2.8971314959961120e-01 -9.4508337681723231e-02 0.0000000000000000e+00  2.8565350657106159e-01 -1.8756836624287518e-01 0.0000000000000000e+00  2.7884255920505241e-01 -2.7882221963070830e-01 0.0000000000000000e+00  2.6934603791473644e-01 -3.6739089282101567e-01 0.0000000000000000e+00  2.5725545253182802e-01 -4.5242137024937468e-01 0.0000000000000000e+00  2.4268728004929094e-01 -5.3309474594613937e-01 0.0000000000000000e+00  2.2578184648305746e-01 -6.0863408682813480e-01 0.0000000000000000e+00  2.0670198250447708e-01 -6.7831190572126587e-01 0.0000000000000000e+00  1.8563145861506700e-01 -7.4145716562054786e-01 0.0000000000000000e+00  1.6277321621373569e-01 -7.9746174222613753e-01 0.0000000000000000e+00  1.3834741295290590e-01 -8.4578628088719865e-01 0.0000000000000000e+00  1.1258930189021733e-01 -8.8596539116810202e-01 0.0000000000000000e+00  8.5746965155876653e-02 -9.1761212895855926e-01 0.0000000000000000e+00  5.8078924090483902e-02 -9.4042172297548821e-01 0.0000000000000000e+00  2.9851648935662424e-02 -9.5417450979905671e-01 0.0000000000000000e+00  1.3369920941145401e-03 -9.5873804919397976e-01 0.0000000000000000e+00  -2.7190430299255799e-02 -9.5406839936343979e-01 0.0000000000000000e+00  -5.5455883260197444e-02 -9.4021053987126924e-01 0.0000000000000000e+00  -8.3187158813261761e-02 -9.1729793817611138e-01 0.0000000000000000e+00  -1.1011719734008683e-01 -8.8555126396998041e-01 0.0000000000000000e+00  -1.3598665917447481e-01 -8.4527626372383102e-01 0.0000000000000000e+00  -1.6054642168498040e-01 -7.9686081593592373e-01 0.0000000000000000e+00  -1.8355997780956046e-01 -7.4077119547948234e-01 0.0000000000000000e+00  -2.0480571296919148e-01 -6.7754758308274443e-01 0.0000000000000000e+00  -2.2407903849968705e-01 -6.0779886327839172e-01 0.0000000000000000e+00  -2.4119436126259416e-01 -5.3219676104981484e-01 0.0000000000000000e+00  -2.5598687113391683e-01 -4.5146937367652001e-01 0.0000000000000000e+00  -2.6831413109047730e-01 -3.6639415913551604e-01 0.0000000000000000e+00  -2.7805745815962030e-01 -2.7779044353265786e-01 0.0000000000000000e+00  -2.8512309267110925e-01 -1.8651154449319030e-01 0.0000000000000000e+00  -2.8944317772022360e-01 -9.3436637090937996e-02 0.0000000000000000e+00  -2.9060019275674487e-01 -1.7174755153410987e-04 0.0000000000000000e+00  3.8355500740012816e-01 -6.6360096252789525e-04 0.0000000000000000e+00  3.8183328141017314e-01 -9.1388593996272388e-02 0.0000000000000000e+00  3.7643482182535803e-01 -1.8123001802584493e-01 0.0000000000000000e+00  3.6741084867132323e-01 -2.6932625847592545e-01 0.0000000000000000e+00  3.5484836162701960e-01 -3.5482878762877984e-01 0.0000000000000000e+00  3.3886836896338468e-01 -4.3691412530504065e-01 0.0000000000000000e+00  3.1962479860518306e-01 -5.1479171821000713e-01 0.0000000000000000e+00  2.9730300620027716e-01 -5.8771154949021098e-01 0.0000000000000000e+00  2.7211798946320276e-01 -6.5497135450746136e-01 0.0000000000000000e+00  2.4431231874151205e-01 -7.1592338071325634e-01 0.0000000000000000e+00  2.1415380155572630e-01 -7.6998062474892071e-01 0.0000000000000000e+00  1.8193290343657023e-01 -8.1662248536188875e-01 0.0000000000000000e+00  1.4795995015447580e-01 -8.5539977708345760e-01 0.0000000000000000e+00  1.1256213851038843e-01 -8.8593905615254354e-01 0.0000000000000000e+00  7.6080384619230321e-02 -9.0794621694912714e-01 0.0000000000000000e+00  3.8866040125123152e-02 -9.2120932428615099e-01 0.0000000000000000e+00  1.2775080242496089e-03 -9.2560065428548577e-01 0.0000000000000000e+00  -3.6323209276989503e-02 -9.2107792419462542e-01 0.0000000000000000e+00  -7.3573996406909856e-02 -9.0768469931472884e-01 0.0000000000000000e+00  -1.1011611238719447e-01 -8.8554997313758932e-01 0.0000000000000000e+00  -1.4559764531867267e-01 -8.5488692475383776e-01 0.0000000000000000e+00  -1.7967690112990184e-01 -8.1599086552075528e-01 0.0000000000000000e+00  -2.1202569376965133e-01 -7.6923639478901029e-01 0.0000000000000000e+00  -2.4233250518918445e-01 -7.1507379210887800e-01 0.0000000000000000e+00  -2.7030548474300120e-01 -6.5402468068909614e-01 0.0000000000000000e+00  -2.9567525924360821e-01 -5.8667700388032928e-01 0.0000000000000000e+00  -3.1819752685137620e-01 -5.1367936297469452e-01 0.0000000000000000e+00  -3.3765541024604995e-01 -4.3573477042352932e-01 0.0000000000000000e+00  -3.5386154679355208e-01 -3.5359387735930481e-01 0.0000000000000000e+00  -3.6665989453747710e-01 -2.6804773911795648e-01 0.0000000000000000e+00  -3.7592724782779413e-01 -1.7992023112769903e-01 0.0000000000000000e+00  -3.8157455576255367e-01 -9.0060307919155161e-02 0.0000000000000000e+00  -3.8308737356258538e-01 -2.1467074323843735e-04 0.0000000000000000e+00  4.7243319213748353e-01 -7.8621511787907320e-04 0.0000000000000000e+00  4.7027621541166792e-01 -8.7388655435793619e-02 0.0000000000000000e+00  4.6359094331483919e-01 -1.7314627465125870e-01 0.0000000000000000e+00  4.5244082528696317e-01 -2.5723652555339854e-01 0.0000000000000000e+00  4.3693332520057343e-01 -3.3884949056308022e-01 0.0000000000000000e+00  4.1721780116961554e-01 -4.1719916294119974e-01 0.0000000000000000e+00  3.9348414837555223e-01 -4.9153096656956041e-01 0.0000000000000000e+00  3.6596096249961757e-01 -5.6112902859375258e-01 0.0000000000000000e+00  3.3491333477994417e-01 -6.2532307106990859e-01 0.0000000000000000e+00  3.0064029797854136e-01 -6.8349486380731117e-01 0.0000000000000000e+00  2.6347194618113656e-01 -7.3508417699105455e-01 0.0000000000000000e+00  2.2376625545189582e-01 -7.7959417593548808e-01 0.0000000000000000e+00  1.8190563582263747e-01 -8.1659620564409963e-01 0.0000000000000000e+00  1.3829324787261166e-01 -8.4573391887538529e-01 0.0000000000000000e+00  9.3349119454476298e-02 -8.6672670785080685e-01 0.0000000000000000e+00  4.7506100034793955e-02 -8.7937240651052861e-01 0.0000000000000000e+00  1.2056916625545237e-03 -8.8354923727873580e-01 0.0000000000000000e+00  -4.5106203248633431e-02 -8.7921698359172784e-01 0.0000000000000000e+00  -9.0983576350581588e-02 -8.6641737690646126e-01 0.0000000000000000e+00  -1.3598460863488399e-01 -8.4527369447657597e-01 0.0000000000000000e+00  -1.7967592518443409e-01 -8.1598957178671183e-01 0.0000000000000000e+00  -2.2163676843713132e-01 -7.7884704110064473e-01 0.0000000000000000e+00  -2.6146304979426155e-01 -7.3420381503188969e-01 0.0000000000000000e+00  -2.9877124059452892e-01 -6.8248984131139256e-01 0.0000000000000000e+00  -3.3320206504649413e-01 -6.2420316192985992e-01 0.0000000000000000e+00  -3.6442395965151031e-01 -5.5990511648637875e-01 0.0000000000000000e+00  -3.9213626591905604e-01 -4.9021493578265080e-01 0.0000000000000000e+00  -4.1607212566012164e-01 -4.1580377737215374e-01 0.0000000000000000e+00  -4.3600105057634242e-01 -3.3738826004819689e-01 0.0000000000000000e+00  -4.5173114041299595e-01 -2.5572356082890724e-01 0.0000000000000000e+00  -4.6311094585910501e-01 -1.7159618745946811e-01 0.0000000000000000e+00  -4.7003111176737816e-01 -8.5816676790171909e-02 0.0000000000000000e+00  -4.7188537006938408e-01 -2.5543492827940275e-04 0.0000000000000000e+00  5.5676166464838739e-01 -9.0125698178331493e-04 0.0000000000000000e+00  5.5419017932400205e-01 -8.2547072041187358e-02 0.0000000000000000e+00  5.4628248542103752e-01 -1.6339499354784115e-01 0.0000000000000000e+00  5.3311359910942457e-01 -2.4266943799979332e-01 0.0000000000000000e+00  5.1481041588482568e-01 -3.1960687718004405e-01 0.0000000000000000e+00  4.9154921518748196e-01 -3.9346634195762398e-01 0.0000000000000000e+00  4.6355403488120278e-01 -4.6353650320668766e-01 0.0000000000000000e+00  4.3109450920702319e-01 -5.2914252959175845e-01 0.0000000000000000e+00  3.9448326885416490e-01 -5.8965258673147825e-01 0.0000000000000000e+00  3.5407292824508535e-01 -6.4448392125212395e-01 0.0000000000000000e+00  3.1025268856385996e-01 -6.9310847220871663e-01 0.0000000000000000e+00  2.6344458873899707e-01 -7.3505795607756674e-01 0.0000000000000000e+00  2.1409944025743294e-01 -7.6992837628024791e-01 0.0000000000000000e+00  1.6269248490516572e-01 -7.9738391369654482e-01 0.0000000000000000e+00  1.0971881727233047e-01 -8.1716016061594932e-01 0.0000000000000000e+00  5.5688616146576164e-02 -8.2906666693653552e-01 0.0000000000000000e+00  1.1222307581549818e-03 -8.3298877406924732e-01 0.0000000000000000e+00  -5.3454830770475227e-02 -8.2888871888174953e-01 0.0000000000000000e+00  -1.0751696248617164e-01 -8.1680599705560109e-01 0.0000000000000000e+00  -1.6054352242726036e-01 -7.9685698236868074e-01 0.0000000000000000e+00  -2.1202384645962960e-01 -7.6923380558377019e-01 0.0000000000000000e+00  -2.6146216585308074e-01 -7.3420250375521701e-01 0.0000000000000000e+00  -3.0838238126354073e-01 -6.9210045778969342e-01 0.0000000000000000e+00  -3.5233264718248786e-01 -6.4333314294300648e-01 0.0000000000000000e+00  -3.9288972275147965e-01 -5.8837022353332924e-01 0.0000000000000000e+00  -4.2966304709031833e-01 -5.2774102943105494e-01 0.0000000000000000e+00  -4.6229849990240163e-01 -4.6202945778709270e-01 0.0000000000000000e+00  -4.9048181101832439e-01 -3.9186834897193762e-01 0.0000000000000000e+00  -5.1394158567491566e-01 -3.1793339100890528e-01 0.0000000000000000e+00  -5.3245191645105094e-01 -2.4093661326789012e-01 0.0000000000000000e+00  -5.4583457745787589e-01 -1.6161957866292664e-01 0.0000000000000000e+00  -5.5396097031093661e-01 -8.0746594666510740e-02 0.0000000000000000e+00  -5.5613900080637857e-01 -2.9365325792139106e-04 0.0000000000000000e+00  6.3572828887523603e-01 -1.0076169754659155e-03 0.0000000000000000e+00  6.3276702953360275e-01 -7.6910484422130457e-02 0.0000000000000000e+00  6.2371307173757151e-01 -1.5207009481195824e-01 0.0000000000000000e+00  6.0865223934187118e-01 -2.2576528436059881e-01 0.0000000000000000e+00  5.8772963438340953e-01 -2.9728625871039993e-01 0.0000000000000000e+00  5.6114676339242731e-01 -3.6594421705486008e-01 0.0000000000000000e+00  5.2915965264215792e-01 -4.3107792697508052e-01 0.0000000000000000e+00  4.9207637968955897e-01 -4.9206009875871010e-01 0.0000000000000000e+00  4.5025410411691158e-01 -5.4830342765239481e-01 0.0000000000000000e+00  4.0409562595619541e-01 -5.9926625001392952e-01 0.0000000000000000e+00  3.5404550507114924e-01 -6.4445775955284068e-01 0.0000000000000000e+00  3.0058577869036929e-01 -6.8344273376096509e-01 0.0000000000000000e+00  2.4423131818779650e-01 -7.1584572510038014e-01 0.0000000000000000e+00  1.8552486976168464e-01 -7.4135467656995313e-01 0.0000000000000000e+00  1.2503182676385624e-01 -7.5972392679310297e-01 0.0000000000000000e+00  6.3334784042340109e-02 -7.7077657565580526e-01 0.0000000000000000e+00  1.0279267675633332e-03 -7.7440618769533043e-01 0.0000000000000000e+00  -6.1288692196050251e-02 -7.7057781682988136e-01 0.0000000000000000e+00  -1.2301493124488999e-01 -7.5932834256391724e-01 0.0000000000000000e+00  -1.8355633965587992e-01 -7.4076611444020302e-01 0.0000000000000000e+00  -2.4232988221288379e-01 -7.1506990817512761e-01 0.0000000000000000e+00  -2.9876955372183106e-01 -6.8248720354263626e-01 0.0000000000000000e+00  -3.5233182936618451e-01 -6.4333180060164752e-01 0.0000000000000000e+00  -4.0250089844321496e-01 -5.9798079722674613e-01 0.0000000000000000e+00  -4.4879363110911374e-01 -5.4687095704086097e-01 0.0000000000000000e+00  -4.9076423031910560e-01 -4.9049450270455519e-01 0.0000000000000000e+00  -5.2800852413841737e-01 -4.2939437504750633e-01 0.0000000000000000e+00  -5.6016785698438820e-01 -3.6415900372506693e-01 0.0000000000000000e+00  -5.8693254218611968e-01 -2.9541664005650453e-01 0.0000000000000000e+00  -6.0804484331747655e-01 -2.2382930866503994e-01 0.0000000000000000e+00  -6.2330147753261256e-01 -1.5008648284353304e-01 0.0000000000000000e+00  -6.3255584433896372e-01 -7.4898881649962418e-02 0.0000000000000000e+00  -6.3503684835005547e-01 -3.2896548290753299e-04 0.0000000000000000e+00  7.0857256600979646e-01 -1.1042686476384074e-03 0.0000000000000000e+00  7.0525002494542433e-01 -7.0533184130719767e-02 0.0000000000000000e+00  6.9513699776148530e-01 -1.3928065160259134e-01 0.0000000000000000e+00  6.7832926206152377e-01 -2.0668686455737012e-01 0.0000000000000000e+00  6.5498872617676085e-01 -2.7210259441921986e-01 0.0000000000000000e+00  6.2534018394569735e-01 -3.3489783911491949e-01 0.0000000000000000e+00  5.8966918619084641e-01 -3.9446782954460680e-01 0.0000000000000000e+00  5.4831928823693532e-01 -4.5023885870967639e-01 0.0000000000000000e+00  5.0168873965454031e-01 -5.0167380801068240e-01 0.0000000000000000e+00  4.5022664719498756e-01 -5.4827732050429745e-01 0.0000000000000000e+00  3.9442864814928807e-01 -5.8960057156490342e-01 0.0000000000000000e+00  3.3483213581549875e-01 -6.2524559124438339e-01 0.0000000000000000e+00  2.7201108301366972e-01 -6.5486909681610372e-01 0.0000000000000000e+00  2.0657051346862770e-01 -6.7818579862608175e-01 0.0000000000000000e+00  1.3914067429639940e-01 -6.949