<?xml version="1.0"?>
<VTKFile type="UnstructuredGrid"  version="0.1"  >
<UnstructuredGrid>
<Piece  NumberOfPoints="2197" NumberOfCells="10368">
<Points>
<DataArray  type="Float64"  NumberOfComponents="3"  format="ascii">0 0 0  0.08333333333333333 0 0  0.1666666666666667 0 0  0.25 0 0  0.3333333333333333 0 0  0.4166666666666667 0 0  0.5 0 0  0.5833333333333334 0 0  0.6666666666666666 0 0  0.75 0 0  0.8333333333333334 0 0  0.9166666666666666 0 0  1 0 0  0 0.08333333333333333 0  0.08333333333333333 0.08333333333333333 0  0.1666666666666667 0.08333333333333333 0  0.25 0.08333333333333333 0  0.3333333333333333 0.08333333333333333 0  0.4166666666666667 0.08333333333333333 0  0.5 0.08333333333333333 0  0.5833333333333334 0.08333333333333333 0  0.6666666666666666 0.08333333333333333 0  0.75 0.08333333333333333 0  0.8333333333333334 0.08333333333333333 0  0.9166666666666666 0.08333333333333333 0  1 0.08333333333333333 0  0 0.1666666666666667 0  0.08333333333333333 0.1666666666666667 0  0.1666666666666667 0.1666666666666667 0  0.25 0.1666666666666667 0  0.3333333333333333 0.1666666666666667 0  0.4166666666666667 0.1666666666666667 0  0.5 0.1666666666666667 0  0.5833333333333334 0.1666666666666667 0  0.6666666666666666 0.1666666666666667 0  0.75 0.1666666666666667 0  0.8333333333333334 0.1666666666666667 0  0.9166666666666666 0.1666666666666667 0  1 0.1666666666666667 0  0 0.25 0  0.08333333333333333 0.25 0  0.1666666666666667 0.25 0  0.25 0.25 0  0.3333333333333333 0.25 0  0.4166666666666667 0.25 0  0.5 0.25 0  0.5833333333333334 0.25 0  0.6666666666666666 0.25 0  0.75 0.25 0  0.8333333333333334 0.25 0  0.9166666666666666 0.25 0  1 0.25 0  0 0.3333333333333333 0  0.08333333333333333 0.3333333333333333 0  0.1666666666666667 0.3333333333333333 0  0.25 0.3333333333333333 0  0.3333333333333333 0.3333333333333333 0  0.4166666666666667 0.3333333333333333 0  0.5 0.3333333333333333 0  0.5833333333333334 0.3333333333333333 0  0.6666666666666666 0.3333333333333333 0  0.75 0.3333333333333333 0  0.8333333333333334 0.3333333333333333 0  0.9166666666666666 0.3333333333333333 0  1 0.3333333333333333 0  0 0.4166666666666667 0  0.08333333333333333 0.4166666666666667 0  0.1666666666666667 0.4166666666666667 0  0.25 0.4166666666666667 0  0.3333333333333333 0.4166666666666667 0  0.4166666666666667 0.4166666666666667 0  0.5 0.4166666666666667 0  0.5833333333333334 0.4166666666666667 0  0.6666666666666666 0.4166666666666667 0  0.75 0.4166666666666667 0  0.8333333333333334 0.4166666666666667 0  0.9166666666666666 0.4166666666666667 0  1 0.4166666666666667 0  0 0.5 0  0.08333333333333333 0.5 0  0.1666666666666667 0.5 0  0.25 0.5 0  0.3333333333333333 0.5 0  0.4166666666666667 0.5 0  0.5 0.5 0  0.5833333333333334 0.5 0  0.6666666666666666 0.5 0  0.75 0.5 0  0.8333333333333334 0.5 0  0.9166666666666666 0.5 0  1 0.5 0  0 0.5833333333333334 0  0.08333333333333333 0.5833333333333334 0  0.1666666666666667 0.5833333333333334 0  0.25 0.5833333333333334 0  0.3333333333333333 0.5833333333333334 0  0.4166666666666667 0.5833333333333334 0  0.5 0.5833333333333334 0  0.5833333333333334 0.5833333333333334 0  0.6666666666666666 0.5833333333333334 0  0.75 0.5833333333333334 0  0.8333333333333334 0.5833333333333334 0  0.9166666666666666 0.5833333333333334 0  1 0.5833333333333334 0  0 0.6666666666666666 0  0.08333333333333333 0.6666666666666666 0  0.1666666666666667 0.6666666666666666 0  0.25 0.6666666666666666 0  0.3333333333333333 0.6666666666666666 0  0.4166666666666667 0.6666666666666666 0  0.5 0.6666666666666666 0  0.5833333333333334 0.6666666666666666 0  0.6666666666666666 0.6666666666666666 0  0.75 0.6666666666666666 0  0.8333333333333334 0.6666666666666666 0  0.9166666666666666 0.6666666666666666 0  1 0.6666666666666666 0  0 0.75 0  0.08333333333333333 0.75 0  0.1666666666666667 0.75 0  0.25 0.75 0  0.3333333333333333 0.75 0  0.4166666666666667 0.75 0  0.5 0.75 0  0.5833333333333334 0.75 0  0.6666666666666666 0.75 0  0.75 0.75 0  0.8333333333333334 0.75 0  0.9166666666666666 0.75 0  1 0.75 0  0 0.8333333333333334 0  0.08333333333333333 0.8333333333333334 0  0.1666666666666667 0.8333333333333334 0  0.25 0.8333333333333334 0  0.3333333333333333 0.8333333333333334 0  0.4166666666666667 0.8333333333333334 0  0.5 0.8333333333333334 0  0.5833333333333334 0.8333333333333334 0  0.6666666666666666 0.8333333333333334 0  0.75 0.8333333333333334 0  0.8333333333333334 0.8333333333333334 0  0.9166666666666666 0.8333333333333334 0  1 0.8333333333333334 0  0 0.9166666666666666 0  0.08333333333333333 0.9166666666666666 0  0.1666666666666667 0.9166666666666666 0  0.25 0.9166666666666666 0  0.3333333333333333 0.9166666666666666 0  0.4166666666666667 0.9166666666666666 0  0.5 0.9166666666666666 0  0.5833333333333334 0.9166666666666666 0  0.6666666666666666 0.9166666666666666 0  0.75 0.9166666666666666 0  0.8333333333333334 0.9166666666666666 0  0.9166666666666666 0.9166666666666666 0  1 0.9166666666666666 0  0 1 0  0.08333333333333333 1 0  0.1666666666666667 1 0  0.25 1 0  0.3333333333333333 1 0  0.4166666666666667 1 0  0.5 1 0  0.5833333333333334 1 0  0.6666666666666666 1 0  0.75 1 0  0.8333333333333334 1 0  0.9166666666666666 1 0  1 1 0  0 0 0.08333333333333333  0.08333333333333333 0 0.08333333333333333  0.1666666666666667 0 0.08333333333333333  0.25 0 0.08333333333333333  0.3333333333333333 0 0.08333333333333333  0.4166666666666667 0 0.08333333333333333  0.5 0 0.08333333333333333  0.5833333333333334 0 0.08333333333333333  0.6666666666666666 0 0.08333333333333333  0.75 0 0.08333333333333333  0.8333333333333334 0 0.08333333333333333  0.9166666666666666 0 0.08333333333333333  1 0 0.08333333333333333  0 0.08333333333333333 0.08333333333333333  0.08333333333333333 0.08333333333333333 0.08333333333333333  0.1666666666666667 0.08333333333333333 0.08333333333333333  0.25 0.08333333333333333 0.08333333333333333  0.3333333333333333 0.08333333333333333 0.08333333333333333  0.4166666666666667 0.08333333333333333 0.08333333333333333  0.5 0.08333333333333333 0.08333333333333333  0.5833333333333334 0.08333333333333333 0.08333333333333333  0.6666666666666666 0.08333333333333333 0.08333333333333333  0.75 0.08333333333333333 0.08333333333333333  0.8333333333333334 0.08333333333333333 0.08333333333333333  0.9166666666666666 0.08333333333333333 0.08333333333333333  1 0.08333333333333333 0.08333333333333333  0 0.1666666666666667 0.08333333333333333  0.08333333333333333 0.1666666666666667 0.08333333333333333  0.1666666666666667 0.1666666666666667 0.08333333333333333  0.25 0.1666666666666667 0.08333333333333333  0.3333333333333333 0.1666666666666667 0.08333333333333333  0.4166666666666667 0.1666666666666667 0.08333333333333333  0.5 0.1666666666666667 0.08333333333333333  0.5833333333333334 0.1666666666666667 0.08333333333333333  0.6666666666666666 0.1666666666666667 0.08333333333333333  0.75 0.1666666666666667 0.08333333333333333  0.8333333333333334 0.1666666666666667 0.08333333333333333  0.9166666666666666 0.1666666666666667 0.08333333333333333  1 0.1666666666666667 0.08333333333333333  0 0.25 0.08333333333333333  0.08333333333333333 0.25 0.08333333333333333  0.1666666666666667 0.25 0.08333333333333333  0.25 0.25 0.08333333333333333  0.3333333333333333 0.25 0.08333333333333333  0.4166666666666667 0.25 0.08333333333333333  0.5 0.25 0.08333333333333333  0.5833333333333334 0.25 0.08333333333333333  0.6666666666666666 0.25 0.08333333333333333  0.75 0.25 0.08333333333333333  0.8333333333333334 0.25 0.08333333333333333  0.9166666666666666 0.25 0.08333333333333333  1 0.25 0.08333333333333333  0 0.3333333333333333 0.08333333333333333  0.08333333333333333 0.3333333333333333 0.08333333333333333  0.1666666666666667 0.3333333333333333 0.08333333333333333  0.25 0.3333333333333333 0.08333333333333333  0.3333333333333333 0.3333333333333333 0.08333333333333333  0.4166666666666667 0.3333333333333333 0.08333333333333333  0.5 0.3333333333333333 0.08333333333333333  0.5833333333333334 0.3333333333333333 0.08333333333333333  0.6666666666666666 0.3333333333333333 0.08333333333333333  0.75 0.3333333333333333 0.08333333333333333  0.8333333333333334 0.3333333333333333 0.08333333333333333  0.9166666666666666 0.3333333333333333 0.08333333333333333  1 0.3333333333333333 0.08333333333333333  0 0.4166666666666667 0.08333333333333333  0.08333333333333333 0.4166666666666667 0.08333333333333333  0.1666666666666667 0.4166666666666667 0.08333333333333333  0.25 0.4166666666666667 0.08333333333333333  0.3333333333333333 0.4166666666666667 0.08333333333333333  0.4166666666666667 0.4166666666666667 0.08333333333333333  0.5 0.4166666666666667 0.08333333333333333  0.5833333333333334 0.4166666666666667 0.08333333333333333  0.6666666666666666 0.4166666666666667 0.08333333333333333  0.75 0.4166666666666667 0.08333333333333333  0.8333333333333334 0.4166666666666667 0.08333333333333333  0.9166666666666666 0.4166666666666667 0.08333333333333333  1 0.4166666666666667 0.08333333333333333  0 0.5 0.08333333333333333  0.08333333333333333 0.5 0.08333333333333333  0.1666666666666667 0.5 0.08333333333333333  0.25 0.5 0.08333333333333333  0.3333333333333333 0.5 0.08333333333333333  0.4166666666666667 0.5 0.08333333333333333  0.5 0.5 0.08333333333333333  0.5833333333333334 0.5 0.08333333333333333  0.6666666666666666 0.5 0.08333333333333333  0.75 0.5 0.08333333333333333  0.8333333333333334 0.5 0.08333333333333333  0.9166666666666666 0.5 0.08333333333333333  1 0.5 0.08333333333333333  0 0.5833333333333334 0.08333333333333333  0.08333333333333333 0.5833333333333334 0.08333333333333333  0.1666666666666667 0.5833333333333334 0.08333333333333333  0.25 0.5833333333333334 0.08333333333333333  0.3333333333333333 0.5833333333333334 0.08333333333333333  0.4166666666666667 0.5833333333333334 0.08333333333333333  0.5 0.5833333333333334 0.08333333333333333  0.5833333333333334 0.5833333333333334 0.08333333333333333  0.6666666666666666 0.5833333333333334 0.08333333333333333  0.75 0.5833333333333334 0.08333333333333333  0.8333333333333334 0.5833333333333334 0.083
[...]
<PointData  Tensors="f_1626"> 
<DataArray  type="Float64"  Name="f_1626"  NumberOfComponents="9" format="ascii">1.4759045014354922e-02 9.7380808246380519e-03 1.2011528299231236e-02 8.4243093165167274e-03 1.2220279322177703e-02 2.1520309959195526e-02 -1.7147488718943258e-02 -3.1370582834572988e-02 -2.6979324336533026e-02  1.9200511925109041e-02 2.9083881938204371e-02 8.4006795348707741e-01 1.4766928152227299e-02 1.7382729313025824e-02 2.8617001843986363e-02 -1.6743973408515374e+00 -4.6988940806644605e-02 -3.6583241238135084e-02  2.0980241616151637e-02 4.4763720157205755e-02 1.6115891412994523e+00 2.0654244928909438e-02 2.2495218742086310e-02 3.4035086536267377e-02 -3.2114515375514516e+00 -5.7409687587414188e-02 -4.3475460358238190e-02  2.0130979156993720e-02 5.6918671343923692e-02 2.2729314155427756e+00 2.5133246441114386e-02 2.6607704796533106e-02 3.7425241274966166e-02 -4.5296135734738643e+00 -6.3405031616980898e-02 -4.6738683953526608e-02  1.7827557824340572e-02 6.4617234035643165e-02 2.7790832679837623e+00 2.8114727799036364e-02 2.8933370085495635e-02 3.8639527304290266e-02 -5.5395770903674331e+00 -6.4676027406647671e-02 -4.6760927909836193e-02  1.4858244827998001e-02 6.7423957660552689e-02 3.0956697604115182e+00 2.9507276672449269e-02 2.8978590298754148e-02 3.7711754604092235e-02 -6.1730128439695964e+00 -6.1167603039903075e-02 -4.3836835126752169e-02  1.1870543794452229e-02 6.5387048064584494e-02 3.2013070695303623e+00 2.9263044766620391e-02 2.6478916971015745e-02 3.4728071187028572e-02 -6.3870375275807545e+00 -5.3185992560945985e-02 -3.8349460765468017e-02  9.2508028446392776e-03 5.8954726644644941e-02 3.0889872738454329e+00 2.7369940062799740e-02 2.1462348830321831e-02 2.9802167450338306e-02 -6.1670658781393373e+00 -4.1368319620207913e-02 -3.0713151674961092e-02  7.0490624160441072e-03 4.8859620030035744e-02 2.7665013613075797e+00 2.3859759663710994e-02 1.4283699276245329e-02 2.3089998974698871e-02 -5.5278044618931688e+00 -2.6614726444741197e-02 -2.1332761692289544e-02  5.0108024740934788e-03 3.5997509170761471e-02 2.2558828363050316e+00 1.8831969261050539e-02 5.5963759386204789e-03 1.4826418342167627e-02 -4.5123230504999565e+00 -1.0002476328934196e-02 -1.0607178412713796e-02  2.7226725615689729e-03 2.1348021548508955e-02 1.5919298144338014e+00 1.2475878126588099e-02 -3.7284475310674025e-03 5.3653455682133302e-03 -3.1892651613939460e+00 7.2858911640518078e-03 1.0057749694984295e-03  -5.0825012305683373e-04 5.9141514895147173e-03 8.1973786783929359e-01 5.0956617987067930e-03 -1.2224781062077739e-02 -5.0429152132156841e-03 -1.6484011380131796e+00 2.3999050852913834e-02 1.2733031185134632e-02  -7.1412767021166645e-03 1.3105187805250635e-03 4.7600998788001224e-03 1.1895946910004370e-03 -4.0396891606513489e-03 -5.1389156047442425e-03 -6.4638344598885030e-03 9.1195721896864777e-03 1.1180965862768434e-02  2.3802825597321140e-02 1.7313726535874631e-02 2.0564824538568695e-02 1.0262313512149776e-02 2.7889499493906331e-02 8.5128720674712977e-01 -3.1779968466510107e-02 -1.6977433507987663e+00 -5.1692325091227460e-02  2.6763325403555034e-02 3.5137459468813713e-02 8.2009078901128807e-01 1.6480130763142239e-02 3.1653559180284230e-02 8.2886197244984727e-01 -1.6250172561045808e+00 -1.6534386544089845e+00 -5.8416884583838841e-02  2.6493349862353077e-02 4.8473103847625348e-02 1.5639094729880150e+00 2.1222665673060276e-02 3.4954381549097441e-02 7.4989533453196910e-01 -3.1074345232481142e+00 -1.4949367482423921e+00 -6.1447731411450782e-02  2.3706697532850079e-02 5.7727822878665465e-02 2.2007275167792812e+00 2.4600437883414081e-02 3.6089058471288932e-02 6.2033495943517214e-01 -4.3781981548830009e+00 -1.2343160560696889e+00 -5.9795756004139035e-02  1.9444313644183121e-02 6.2361568575000963e-02 2.6871329252889007e+00 2.6523546911762706e-02 3.4773149674407838e-02 4.4898054622660261e-01 -5.3511128341607588e+00 -8.8947288181207151e-01 -5.4217463318590849e-02  1.4538040505394617e-02 6.2238443690482884e-02 2.9901236987551361e+00 2.6941155679908946e-02 3.0853800978116897e-02 2.4751921610362379e-01 -5.9602471726137844e+00 -4.8402833565553599e-01 -4.5391841483511455e-02  9.6716987706896070e-03 5.7667772229694339e-02 3.0893127265280396e+00 2.5836320918765095e-02 2.4395072550059949e-02 2.9611752060591558e-02 -6.1642668675932928e+00 -4.5705607575872678e-02 -3.4066771320749561e-02  5.2625207652934967e-03 4.9316654228279182e-02 2.9782168367835600e+00 2.3229129519458803e-02 1.5725450320278039e-02 -1.9005077615112803e-01 -5.9492060238240887e+00 3.9558350322354541e-01 -2.0987971085571655e-02  1.4105884689839514e-03 3.8070816891789899e-02 2.6646209511175964e+00 1.9190737458713119e-02 5.4443121232809911e-03 -3.9671336671802621e-01 -5.3294353666784691e+00 8.0978804079991473e-01 -6.8549005922653467e-03  -2.0512684126883177e-03 2.4888395230634703e-02 2.1700064560185566e+00 1.3866441486572550e-02 -5.6205025536171594e-03 -5.7651115480896475e-01 -4.3467573485515141e+00 1.1687598052027122e+00 7.6717709663054181e-03  -5.4146260074634141e-03 1.0679609298702920e-02 1.5281160195274328e+00 7.4935584126751423e-03 -1.6470087441010205e-02 -7.1737547704778926e-01 -3.0676877195674006e+00 1.4481461791175341e+00 2.1884713448473526e-02  -9.2894987148380691e-03 -3.6775217287082686e-03 7.8257971234378654e-01 4.5220698836577364e-04 -2.5502241462278395e-02 -8.1008049841509777e-01 -1.5791431689442337e+00 1.6292929408132555e+00 3.4791740177116365e-02  -1.5015754210030388e-02 3.2413690131418609e-03 8.5271781947150408e-03 5.7487947083965365e-03 -4.3935940246623024e-03 -8.2628364267245824e-01 -7.4089607657020252e-03 1.6424331101435039e+00 1.9409348234692904e-02  3.0947207198756509e-02 2.4143281139090870e-02 2.7604918060816632e-02 1.2030664513732772e-02 4.3084032870880522e-02 1.6236233367097235e+00 -4.4805796859415395e-02 -3.2470277175861915e+00 -7.4031240069636989e-02  3.1280032982316103e-02 3.9070524344318153e-02 7.4330510268585448e-01 1.6389190551950442e-02 4.5220542879204587e-02 1.5729859190762467e+00 -1.4648702258459387e+00 -3.1462096206682659e+00 -7.6500575861520898e-02  3.0022167402216769e-02 4.8967115156725673e-02 1.4087034401308958e+00 1.9941940447461580e-02 4.5298625746102841e-02 1.4157508853645613e+00 -2.7917888496049228e+00 -2.8300276035113430e+00 -7.5320793148320048e-02  2.6385311570075155e-02 5.4824280392160578e-02 1.9775880677755557e+00 2.2248311835538954e-02 4.2455451466390348e-02 1.1624204621246790e+00 -3.9286261833339484e+00 -2.3209636780942984e+00 -6.8840763036465386e-02  2.1090328194926497e-02 5.6252077260559356e-02 2.4111584262888965e+00 2.3209469883746572e-02 3.6933631391261899e-02 8.3025746285649882e-01 -4.7981940329574551e+00 -1.6538437586653365e+00 -5.8023959586188383e-02  1.4808783724977662e-02 5.3348688701670401e-02 2.6800388415411946e+00 2.2754449042739121e-02 2.9066004436386801e-02 4.4184286307123499e-01 -5.3414470650677828e+00 -8.7428634642458869e-01 -4.3874788161364392e-02  8.1590395179769737e-03 4.6635187458032627e-02 2.7661860835202030e+00 2.0866778434981859e-02 1.9299762801276717e-02 2.3521350403410191e-02 -5.5214279245859972e+00 -3.5501293671028812e-02 -2.7458802319253683e-02  1.6185737431260361e-03 3.6939029776834664e-02 2.6640340891770062e+00 1.7598080369810008e-02 8.1935706981604416e-03 -3.9637481090616611e-01 -5.3257697181370141e+00 8.0535921001564292e-01 -9.8121444412865074e-03  -4.5164209177558992e-03 2.5239566772698473e-02 2.3807928309265316e+00 1.3085540663690777e-02 -3.5904647032997668e-03 -7.8941478772777340e-01 -4.7675662027607038e+00 1.5910932670052371e+00 8.1068856210556369e-03  -1.0109044921943453e-02 1.2514955434433438e-02 1.9359021234622524e+00 7.5654545173601314e-03 -1.5304477408074594e-02 -1.1289613284128499e+00 -3.8845425705267407e+00 2.2683208043393255e+00 2.5413522330018094e-02  -1.5102262818841009e-02 -3.7354925028562375e-04 1.3597072274016941e+00 1.3718156860110700e-03 -2.6126696641384416e-02 -1.3919553224395025e+00 -2.7365830999194838e+00 2.7910785956015678e+00 4.1228959460225319e-02  -1.9749209918084959e-02 -1.2519899313593487e-02 6.9140772149751939e-01 -4.9958873406708883e-03 -3.4750878794443718e-02 -1.5607875994071385e+00 -1.4017708446087795e+00 3.1242832610884173e+00 5.4500088712528191e-02  -2.0410598531515136e-02 6.3140578714652763e-03 1.1374380223096992e-02 1.0250670789858630e-02 -1.1155003325290892e-02 -1.5925145450279492e+00 -1.1768030900586660e-02 3.1749088414812543e+00 3.1565601856806270e-02  3.6160747616717573e-02 2.9212518611461555e-02 3.2877681325841929e-02 1.3217806370755784e-02 5.5291846533036253e-02 2.2855479070511437e+00 -5.4743131640700833e-02 -4.5742664979684493e+00 -9.1452594149753832e-02  3.4287213847789835e-02 4.0080837410103945e-02 6.1608187530447622e-01 1.5166915383273014e-02 5.5335537258800194e-02 2.2103390696443754e+00 -1.2054367925497651e+00 -4.4239467135479460e+00 -8.9622751106589987e-02  3.2440052053565309e-02 4.5871387975977694e-02 1.1576372023785102e+00 1.7354531925598306e-02 5.2112603078174904e-02 1.9854568589590211e+00 -2.2863845929998430e+00 -3.9718094703419666e+00 -8.4552655131739943e-02  2.8238939150448821e-02 4.7952187425914256e-02 1.6197689096154795e+00 1.8448356876806436e-02 4.5512560102186822e-02 1.6255340162181353e+00 -3.2117041058266156e+00 -3.2491691777735268e+00 -7.3751499252635550e-02  2.2029993901450030e-02 4.6155898182312270e-02 1.9709118849430964e+00 1.8364273986865187e-02 3.6291362490990735e-02 1.1550656721068178e+00 -3.9184969641610956e+00 -2.3053822929941883e+00 -5.8321356392440751e-02  1.4362387381042323e-02 4.0788629786469896e-02 2.1873083935102331e+00 1.7023595275259863e-02 2.5198680574396250e-02 6.0601926016161700e-01 -4.3586718054002445e+00 -1.2049164357211157e+00 -3.9561067955438546e-02  5.8682168011072846e-03 3.2514489881201668e-02 2.2544952021305535e+00 1.4422234255679725e-02 1.2983051899428633e-02 1.5669719781147416e-02 -4.5022135557892931e+00 -2.2819879384022006e-02 -1.8851268700535918e-02  -2.8080016107822950e-03 2.2231831269147535e-02 2.1682123863708660e+00 1.0655522553883726e-02 3.4444747495411749e-04 -5.7590660626453527e-01 -4.3392334669822805e+00 1.1604075617970475e+00 2.4635541358281865e-03  -1.1071734862444772e-02 1.0922362332668861e-02 1.9346109354926335e+00 5.9336221835464692e-03 -1.2076654583449691e-02 -1.1285222856342121e+00 -3.8806721006680429e+00 2.2642855003945677e+00 2.3148389445894379e-02  -1.8418254271165242e-02 -4.9214857406104683e-04 1.5697678095496768e+00 5.7967623665326718e-04 -2.3682366949058686e-02 -1.6045850665376495e+00 -3.1575978851654125e+00 3.2137968929305769e+00 4.2100621220224219e-02  -2.4442690701502092e-02 -1.1256340199656715e-02 1.0985668554229870e+00 -4.9971244596624257e-03 -3.3877070930849580e-02 -1.9716489998659752e+00 -2.2191503118883857e+00 3.9444486194448327e+00 5.8319761632351572e-02  -2.9102040703006617e-02 -2.0495106800312017e-02 5.5313112840805478e-01 -1.0221022154402635e-02 -4.1633448220525802e-02 -2.2050091976516972e+00 -1.1292001719435172e+00 4.4070443530955989e+00 7.0735488923532555e-02  -2.4477126183505015e-02 8.9340784509254183e-03 1.3480002648097749e-02 1.4074241934452827e-02 -1.7644183049019158e-02 -2.2504687471303342e+00 -1.5797108494191758e-02 4.4910292315505593e+00 4.2121309232523961e-02  3.9289283978368415e-02 3.2069389851754532e-02 3.6075323652907346e-02 1.3688266857203609e-02 6.3204039163359191e-02 2.7919796717444290e+00 -6.0869407352121242e-02 -5.5887079191249232e+00 -1.0249332314172765e-01  3.5984303333541183e-02 3.8163621840884628e-02 4.4709805240676787e-01 1.3232623334615459e-02 6.0870508102944219e-02 2.6974346623476393e+00 -8.6471904030759539e-01 -5.3993449877161384e+00 -9.6854811436485416e-02  3.3806098600076440e-02 3.9468569137948349e-02 8.2785047092101172e-01 1.3871984266245743e-02 5.4632633727016898e-02 2.4201876718085913e+00 -1.6258626199208019e+00 -4.8422926342412840e+00 -8.8438732327093539e-02  2.9135545292104163e-02 3.7679381070859476e-02 1.1516571744810054e+00 1.3607472176557989e-02 4.4900968244254123e-02 1.9781195096809558e+00 -2.2763442172116686e+00 -3.9555441372550284e+00 -7.4036513536358387e-02  2.2010105321294271e-02 3.2853990425045304e-02 1.3963638823117461e+00 1.2387168950012696e-02 3.2843467035322510e-02 1.4012970354655987e+00 -2.7719023743138944e+00 -2.7995783655641353e+00 -5.4853572356616795e-02  1.2937518046813281e-02 2.5470121388311461e-02 1.5454569816270003e+00 1.0157990798145859e-02 1.9513568690526506e-02 7.2891523248274204e-01 -3.0787560440493964e+00 -1.4532732360751384e+00 -3.2451086737339811e-02  2.6689081289490912e-03 1.6268853713643068e-02 1.5890527461251551e+00 6.9542284100126105e-03 5.8469332967668970e-03 6.6701171236558847e-03 -3.1759442529145017e+00 -8.3809568926235291e-03 -8.5158414257160038e-03  -7.8891966181113653e-03 6.1400100221295989e-03 1.5245004038611625e+00 2.9262557274694436e-03 -7.4077943222998609e-03 -7.1632119862984023e-01 -3.0567664974111155e+00 1.4367259621443507e+00 1.5296990940411205e-02  -1.7792320364851739e-02 -4.0094575997879659e-03 1.3564783064580566e+00 -1.6516228321305298e-03 -1.9690264343150094e-02 -1.3908384301409979e+00 -2.7292606436193996e+00 2.7837340417099301e+00 3.7482584708001844e-02  -2.6181939768018608e-02 -1.3376924297346170e-02 1.0966018478170256e+00 -6.4000328109082667e-03 -3.0574161293390370e-02 -1.9708994550105881e+00 -2.2156775334480354e+00 3.9410444180549598e+00 5.6756101061408958e-02  -3.2389661823593464e-02 -2.1351973644140324e-02 7.6259025648643308e-01 -1.0882796917088718e-02 -3.9678282628703057e-02 -2.4169030280584543e+00 -1.5509909278729272e+00 4.8299674145837717e+00 7.2067944452296487e-02  -3.6211850117835377e-02 -2.7136769290042342e-02 3.7728769683131580e-01 -1.4518701897188390e-02 -4.6189397080430031e-02 -2.6987516150636788e+00 -7.8042838592773012e-01 5.3904719568300949e+00 8.2401247198265359e-02  -2.6926811387638680e-02 1.0923437018903167e-02 1.4719398673718857e-02 1.6772035633692922e-02 -2.2618373117550151e-02 -2.7549887951183840e+00 -1.8564811123444450e-02 5.5006915398265637e+00 4.9545184505188689e-02  4.0271115672626812e-02 3.2479543768839957e-02 3.7021051954272799e-02 1.3521587454369835e-02 6.5864443969627331e-02 3.1085787830506191e+00 -6.2684595856307951e-02 -6.2211721988073920e+00 -1.0613555964225416e-01  3.6440470500890373e-02 3.3563633149157952e-02 2.4789712400065583e-01 1.0939576559972974e-02 6.1069768616711463e-02 3.0011957459896434e+00 -4.6613016161100551e-01 -6.0059578856243920e+00 -9.7510239117601843e-02  3.4035276113153268e-02 3.0358787246264257e-02 4.4185411596978535e-01 9.8836816915656087e-03 5.2429453695618002e-02 2.6903832259889695e+00 -8.5531918685221831e-01 -5.3821667590861377e+00 -8.6464729808771290e-02  2.8836061516154848e-02 2.4868715305567984e-02 6.0519186679168846e-01 8.1353373128233465e-03 4.0547032501129288e-02 2.1961643023482762e+00 -1.1862645589271490e+00 -4.3919249160267579e+00 -6.9383094017284139e-02  2.0738919566269467e-02 1.7372252793256358e-02 7.2669096337754890e-01 5.7112914082536465e-03 2.6821426383633558e-02 1.5521562286846029e+00 -1.4364446310087273e+00 -3.1026808501055285e+00 -4.7560345949903028e-02  1.0325415094505856e-02 8.4789117969785287e-03 7.9822426021500770e-01 2.6284494533926964e-03 1.2445795864697476e-02 8.0214383464224825e-01 -1.5887916162271249e+00 -1.6023139824549915e+00 -2.2771210959203331e-02  -1.4348096875752454e-03 -1.0442046644890252e-03 8.1518498186019950e-01 -1.0110016664843927e-03 -1.5964425386259188e-03 -2.8404207485874041e-03 -1.6329011719817252e+00 6.9804527014737435e-03 3.0312522262011649e-03  -1.3321692821461357e-02 -1.0370118415904505e-02 7.7673198121138520e-01 -4.9978127958475883e-03 -1.4597447251758478e-02 -8.0796899783980480e-01 -1.5657457141284048e+00 1.6156416977108190e+00 2.7919140073219856e-02  -2.4060143277438731e-02 -1.8716969111264158e-02 6.8576131839743781e-01 -9.0196660397935686e-03 -2.6106001609726426e-02 -1.5583444814517764e+00 -1.3918868710056964e+00 3.1141811312328698e+00 5.0166144887165157e-02  -3.2531439406720389e-02 -2.5442080047194119e-02 5.4863263983688171e-01 -1.2693674882080685e-02 -3.5841826090167735e-02 -2.2027480252764176e+00 -1.1231683169909925e+00 4.4006070899814063e+00 6.8373265496888144e-02  -3.7952209845460792e-02 -3.0106137481031386e-02 3.7468824989274030e-01 -1.5625371181444445e-02 -4.3574893555107783e-02 -2.6971512854651816e+00 -7.7791434081841249e-01 5.3873438121959669e+00 8.1527103400568582e-02  -4.0144410001367301e-02 -3.2058476651626491e-02 1.7592274169818786e-01 -1.7320329894821573e-02 -4.8591043960063640e-02 -3.0081412755724681e+00 -3.7953805489723952e-01 6.0075566410203427e+00 8.8735453961430968e-02  -2.7679913242903861e-02 1.2086553945183954e-02 1.5064085389775439e-02 1.8062701771278149e-02 -2.5150483695365346e-02 -3.0715866255191124e+00 -1.9583382914358204e-02 6.1345501231796629e+00 5.2830396938269152e-02  3.9075985501305560e-02 3.0447498374791635e-02 3.5661845021088601e-02 1.2790226590754166e-02 6.2932822338189864e-02 3.2138518529967750e+00 -6.0010174338045619e-02 -6.4287599881641784e+00 -1.0200880783949533e-01  3.5577279545045692e-02 2.6745043275112304e-02 3.2082605633861276e-02 8.5197295478414772e-03 5.5815742832660990e-02 3.1009537734655521e+00 -3.6823400809065134e-02 -6.2026658719356194e+00 -9.1393022377706745e-02  3.2908898863689903e-02 1.9365752653566638e-02 2.6005134694227196e-02 5.6937813284441896e-03 4.5613220070340826e-02 2.7775970816585067e+00 -2.7193842912534547e-02 -5.5547894196972232e+00 -7.8522118934030716e-02  2.7055531573836559e-02 1.0586793317469152e-02 1.7673099114466219e-02 2.4023211678135844e-03 3.2765061191330748e-02 2.2647407630167544e+00 -1.5642803682810978e-02 -4.5286344609293359e+00 -5.9820592765167324e-02  1.7987611383754255e-02 8.9854951706001623e-04 7.5773495200479046e-03 -1.2264657598804079e-03 1.8685516885795537e-02 1.5972931924349338e+00 -3.0190151269974372e-03 -3.1940145769384189e+00 -3.6673128269549750e-02  6.4737530058019480e-03 -8.9901368968275559e-03 -3.4469695527748782e-03 -5.0619019227986757e-03 4.5248873457365280e-03 8.2068039462371656e-01 9.7668248394781765e-03 -1.6418098612922143e+00 -1.0998640351538471e-02  -6.2373081269354574e-03 -1.8313602118890930e-02 -1.4382851048273460e-02 -8.9113174877164039e-03 -8.8272919391742775e-03 -1.2186222563382382e-02 2.1787470994282240e-02 2.2299927025324930e-02 1.5064600066109740e-02  -1.8625365169965099e-02 -2.6329611772217040e-02 -2.4175206164183897e-02 -1.2514760175001974e-02 -2.0780859887430898e-02 -8.4450570169742045e-01 3.2178718511511391e-02 1.6850097226948808e+00 3.9406225057396008e-02  -2.9177299106170444e-02 -3.2399766778351963e-02 -3.1890303898344803e-02 -1.5562186160016580e-02 -3.0999483338178795e-02 -1.6194662988649677e+00 4.0210364967706462e-02 3.2330842657503664e+00 6.0176782444349278e-02  -3.6669092949101492e-02 -3.6058736286445112e-02 -3.6854086866887584e-02 -1.7732142855422114e-02 -3.9295831915562934e-02 -2.2841393933335263e+00 4.5342591336706033e-02 4.5610549594799874e+00 7.5964924864664413e-02  -4.0382692405088433e-02 -3.7055782042424677e-02 -3.8737132238433697e-02 -1.8747255811492974e-02 -4.5502297405690666e-02 -2.7931099193580673e+00 4.7258482732430739e-02 5.5783995047530048e+00 8.5884989810779147e-02  -4.0357083466712254e-02 -3.4970979300787769e-02 -3.7229938085952451e-02 -1.8291764467976052e-02 -4.8877425239367160e-02 -3.1119595584011956e+00 4.6036697722333202e-02 6.2160061558823596e+00 8.9234508706079463e-02  -2.6750930625052318e-02 1.2299953330555493e-02 1.4533667467792217e-02 1.7834705784935637e-02 -2.4722433800920804e-02 -3.1786268927282681e+00 -1.8610599832357178e-02 6.3490698124823952e+00 5.1473364425973105e-02  3.5691496637861302e-02 2.6208858809188624e-02 3.2068541583922833e-02 1.1516892051092900e-02 5.4759435227848048e-02 3.1005728411724287e+00 -5.3017574534271736e-02 -6.1977212960332277e+00 -9.0450931865709586e-02  3.3186110012669724e-02 1.8330481031259508e-02 -1.8563032794366471e-01 6.0484712520871156e-03 4.5680417703871330e-02 2.9898097166824904e+00 3.9415959466042205e-01 -5.9764138899034664e+00 -7.8866527716541207e-02  3.0148725951679497e-02 7.4317029512014016e-03 -3.9130985450472511e-01 1.4910595726944009e-03 3.4841948195485493e-02 2.6757507060915593e+00 8.0228707543018896e-01 -5.3486382093029770e+00 