<?xml version="1.0"?>
<VTKFile type="UnstructuredGrid"  version="0.1"  >
<UnstructuredGrid>
<Piece  NumberOfPoints="2197" NumberOfCells="10368">
<Points>
<DataArray  type="Float64"  NumberOfComponents="3"  format="ascii">0 0 0  0.08333333333333333 0 0  0.1666666666666667 0 0  0.25 0 0  0.3333333333333333 0 0  0.4166666666666667 0 0  0.5 0 0  0.5833333333333334 0 0  0.6666666666666666 0 0  0.75 0 0  0.8333333333333334 0 0  0.9166666666666666 0 0  1 0 0  0 0.08333333333333333 0  0.08333333333333333 0.08333333333333333 0  0.1666666666666667 0.08333333333333333 0  0.25 0.08333333333333333 0  0.3333333333333333 0.08333333333333333 0  0.4166666666666667 0.08333333333333333 0  0.5 0.08333333333333333 0  0.5833333333333334 0.08333333333333333 0  0.6666666666666666 0.08333333333333333 0  0.75 0.08333333333333333 0  0.8333333333333334 0.08333333333333333 0  0.9166666666666666 0.08333333333333333 0  1 0.08333333333333333 0  0 0.1666666666666667 0  0.08333333333333333 0.1666666666666667 0  0.1666666666666667 0.1666666666666667 0  0.25 0.1666666666666667 0  0.3333333333333333 0.1666666666666667 0  0.4166666666666667 0.1666666666666667 0  0.5 0.1666666666666667 0  0.5833333333333334 0.1666666666666667 0  0.6666666666666666 0.1666666666666667 0  0.75 0.1666666666666667 0  0.8333333333333334 0.1666666666666667 0  0.9166666666666666 0.1666666666666667 0  1 0.1666666666666667 0  0 0.25 0  0.08333333333333333 0.25 0  0.1666666666666667 0.25 0  0.25 0.25 0  0.3333333333333333 0.25 0  0.4166666666666667 0.25 0  0.5 0.25 0  0.5833333333333334 0.25 0  0.6666666666666666 0.25 0  0.75 0.25 0  0.8333333333333334 0.25 0  0.9166666666666666 0.25 0  1 0.25 0  0 0.3333333333333333 0  0.08333333333333333 0.3333333333333333 0  0.1666666666666667 0.3333333333333333 0  0.25 0.3333333333333333 0  0.3333333333333333 0.3333333333333333 0  0.4166666666666667 0.3333333333333333 0  0.5 0.3333333333333333 0  0.5833333333333334 0.3333333333333333 0  0.6666666666666666 0.3333333333333333 0  0.75 0.3333333333333333 0  0.8333333333333334 0.3333333333333333 0  0.9166666666666666 0.3333333333333333 0  1 0.3333333333333333 0  0 0.4166666666666667 0  0.08333333333333333 0.4166666666666667 0  0.1666666666666667 0.4166666666666667 0  0.25 0.4166666666666667 0  0.3333333333333333 0.4166666666666667 0  0.4166666666666667 0.4166666666666667 0  0.5 0.4166666666666667 0  0.5833333333333334 0.4166666666666667 0  0.6666666666666666 0.4166666666666667 0  0.75 0.4166666666666667 0  0.8333333333333334 0.4166666666666667 0  0.9166666666666666 0.4166666666666667 0  1 0.4166666666666667 0  0 0.5 0  0.08333333333333333 0.5 0  0.1666666666666667 0.5 0  0.25 0.5 0  0.3333333333333333 0.5 0  0.4166666666666667 0.5 0  0.5 0.5 0  0.5833333333333334 0.5 0  0.6666666666666666 0.5 0  0.75 0.5 0  0.8333333333333334 0.5 0  0.9166666666666666 0.5 0  1 0.5 0  0 0.5833333333333334 0  0.08333333333333333 0.5833333333333334 0  0.1666666666666667 0.5833333333333334 0  0.25 0.5833333333333334 0  0.3333333333333333 0.5833333333333334 0  0.4166666666666667 0.5833333333333334 0  0.5 0.5833333333333334 0  0.5833333333333334 0.5833333333333334 0  0.6666666666666666 0.5833333333333334 0  0.75 0.5833333333333334 0  0.8333333333333334 0.5833333333333334 0  0.9166666666666666 0.5833333333333334 0  1 0.5833333333333334 0  0 0.6666666666666666 0  0.08333333333333333 0.6666666666666666 0  0.1666666666666667 0.6666666666666666 0  0.25 0.6666666666666666 0  0.3333333333333333 0.6666666666666666 0  0.4166666666666667 0.6666666666666666 0  0.5 0.6666666666666666 0  0.5833333333333334 0.6666666666666666 0  0.6666666666666666 0.6666666666666666 0  0.75 0.6666666666666666 0  0.8333333333333334 0.6666666666666666 0  0.9166666666666666 0.6666666666666666 0  1 0.6666666666666666 0  0 0.75 0  0.08333333333333333 0.75 0  0.1666666666666667 0.75 0  0.25 0.75 0  0.3333333333333333 0.75 0  0.4166666666666667 0.75 0  0.5 0.75 0  0.5833333333333334 0.75 0  0.6666666666666666 0.75 0  0.75 0.75 0  0.8333333333333334 0.75 0  0.9166666666666666 0.75 0  1 0.75 0  0 0.8333333333333334 0  0.08333333333333333 0.8333333333333334 0  0.1666666666666667 0.8333333333333334 0  0.25 0.8333333333333334 0  0.3333333333333333 0.8333333333333334 0  0.4166666666666667 0.8333333333333334 0  0.5 0.8333333333333334 0  0.5833333333333334 0.8333333333333334 0  0.6666666666666666 0.8333333333333334 0  0.75 0.8333333333333334 0  0.8333333333333334 0.8333333333333334 0  0.9166666666666666 0.8333333333333334 0  1 0.8333333333333334 0  0 0.9166666666666666 0  0.08333333333333333 0.9166666666666666 0  0.1666666666666667 0.9166666666666666 0  0.25 0.9166666666666666 0  0.3333333333333333 0.9166666666666666 0  0.4166666666666667 0.9166666666666666 0  0.5 0.9166666666666666 0  0.5833333333333334 0.9166666666666666 0  0.6666666666666666 0.9166666666666666 0  0.75 0.9166666666666666 0  0.8333333333333334 0.9166666666666666 0  0.9166666666666666 0.9166666666666666 0  1 0.9166666666666666 0  0 1 0  0.08333333333333333 1 0  0.1666666666666667 1 0  0.25 1 0  0.3333333333333333 1 0  0.4166666666666667 1 0  0.5 1 0  0.5833333333333334 1 0  0.6666666666666666 1 0  0.75 1 0  0.8333333333333334 1 0  0.9166666666666666 1 0  1 1 0  0 0 0.08333333333333333  0.08333333333333333 0 0.08333333333333333  0.1666666666666667 0 0.08333333333333333  0.25 0 0.08333333333333333  0.3333333333333333 0 0.08333333333333333  0.4166666666666667 0 0.08333333333333333  0.5 0 0.08333333333333333  0.5833333333333334 0 0.08333333333333333  0.6666666666666666 0 0.08333333333333333  0.75 0 0.08333333333333333  0.8333333333333334 0 0.08333333333333333  0.9166666666666666 0 0.08333333333333333  1 0 0.08333333333333333  0 0.08333333333333333 0.08333333333333333  0.08333333333333333 0.08333333333333333 0.08333333333333333  0.1666666666666667 0.08333333333333333 0.08333333333333333  0.25 0.08333333333333333 0.08333333333333333  0.3333333333333333 0.08333333333333333 0.08333333333333333  0.4166666666666667 0.08333333333333333 0.08333333333333333  0.5 0.08333333333333333 0.08333333333333333  0.5833333333333334 0.08333333333333333 0.08333333333333333  0.6666666666666666 0.08333333333333333 0.08333333333333333  0.75 0.08333333333333333 0.08333333333333333  0.8333333333333334 0.08333333333333333 0.08333333333333333  0.9166666666666666 0.08333333333333333 0.08333333333333333  1 0.08333333333333333 0.08333333333333333  0 0.1666666666666667 0.08333333333333333  0.08333333333333333 0.1666666666666667 0.08333333333333333  0.1666666666666667 0.1666666666666667 0.08333333333333333  0.25 0.1666666666666667 0.08333333333333333  0.3333333333333333 0.1666666666666667 0.08333333333333333  0.4166666666666667 0.1666666666666667 0.08333333333333333  0.5 0.1666666666666667 0.08333333333333333  0.5833333333333334 0.1666666666666667 0.08333333333333333  0.6666666666666666 0.1666666666666667 0.08333333333333333  0.75 0.1666666666666667 0.08333333333333333  0.8333333333333334 0.1666666666666667 0.08333333333333333  0.9166666666666666 0.1666666666666667 0.08333333333333333  1 0.1666666666666667 0.08333333333333333  0 0.25 0.08333333333333333  0.08333333333333333 0.25 0.08333333333333333  0.1666666666666667 0.25 0.08333333333333333  0.25 0.25 0.08333333333333333  0.3333333333333333 0.25 0.08333333333333333  0.4166666666666667 0.25 0.08333333333333333  0.5 0.25 0.08333333333333333  0.5833333333333334 0.25 0.08333333333333333  0.6666666666666666 0.25 0.08333333333333333  0.75 0.25 0.08333333333333333  0.8333333333333334 0.25 0.08333333333333333  0.9166666666666666 0.25 0.08333333333333333  1 0.25 0.08333333333333333  0 0.3333333333333333 0.08333333333333333  0.08333333333333333 0.3333333333333333 0.08333333333333333  0.1666666666666667 0.3333333333333333 0.08333333333333333  0.25 0.3333333333333333 0.08333333333333333  0.3333333333333333 0.3333333333333333 0.08333333333333333  0.4166666666666667 0.3333333333333333 0.08333333333333333  0.5 0.3333333333333333 0.08333333333333333  0.5833333333333334 0.3333333333333333 0.08333333333333333  0.6666666666666666 0.3333333333333333 0.08333333333333333  0.75 0.3333333333333333 0.08333333333333333  0.8333333333333334 0.3333333333333333 0.08333333333333333  0.9166666666666666 0.3333333333333333 0.08333333333333333  1 0.3333333333333333 0.08333333333333333  0 0.4166666666666667 0.08333333333333333  0.08333333333333333 0.4166666666666667 0.08333333333333333  0.1666666666666667 0.4166666666666667 0.08333333333333333  0.25 0.4166666666666667 0.08333333333333333  0.3333333333333333 0.4166666666666667 0.08333333333333333  0.4166666666666667 0.4166666666666667 0.08333333333333333  0.5 0.4166666666666667 0.08333333333333333  0.5833333333333334 0.4166666666666667 0.08333333333333333  0.6666666666666666 0.4166666666666667 0.08333333333333333  0.75 0.4166666666666667 0.08333333333333333  0.8333333333333334 0.4166666666666667 0.08333333333333333  0.9166666666666666 0.4166666666666667 0.08333333333333333  1 0.4166666666666667 0.08333333333333333  0 0.5 0.08333333333333333  0.08333333333333333 0.5 0.08333333333333333  0.1666666666666667 0.5 0.08333333333333333  0.25 0.5 0.08333333333333333  0.3333333333333333 0.5 0.08333333333333333  0.4166666666666667 0.5 0.08333333333333333  0.5 0.5 0.08333333333333333  0.5833333333333334 0.5 0.08333333333333333  0.6666666666666666 0.5 0.08333333333333333  0.75 0.5 0.08333333333333333  0.8333333333333334 0.5 0.08333333333333333  0.9166666666666666 0.5 0.08333333333333333  1 0.5 0.08333333333333333  0 0.5833333333333334 0.08333333333333333  0.08333333333333333 0.5833333333333334 0.08333333333333333  0.1666666666666667 0.5833333333333334 0.08333333333333333  0.25 0.5833333333333334 0.08333333333333333  0.3333333333333333 0.5833333333333334 0.08333333333333333  0.4166666666666667 0.5833333333333334 0.08333333333333333  0.5 0.5833333333333334 0.08333333333333333  0.5833333333333334 0.5833333333333334 0.08333333333333333  0.6666666666666666 0.5833333333333334 0.08333333333333333  0.75 0.5833333333333334 0.08333333333333333  0.8333333333333334 0.5833333333333334 0.083
[...]
<PointData  Scalars="f_1659"> 
<DataArray  type="Float64"  Name="f_1659"  format="ascii">1.4872263084518160e-02  9.5567337969198179e-03  7.8296672395291086e-03  5.8922966354000312e-03  3.4029011252042231e-03  1.0809140239950033e-03  -3.5356051827270041e-04  -4.3436920544924268e-04  9.1195426383211336e-04  3.3302445047875447e-03  6.0615349087806622e-03  6.8435239651580800e-03  -1.7896292354519961e-03  3.8763808851180119e-03  2.3567568671147873e-03  3.4038295311623478e-03  3.9557164641900594e-03  3.6532653315327099e-03  2.7656355484008497e-03  1.6998022281405059e-03  8.7452666028165805e-04  5.9760479785284700e-04  9.7141748444068204e-04  1.8442747440023620e-03  1.8214846108694114e-03  -8.2999540848872570e-03  -2.4491241483407401e-04  3.7557520758227749e-04  2.4011623362419658e-03  3.5499168397237655e-03  3.6668885013870726e-03  2.9573783300714633e-03  1.7969285861716019e-03  6.4671546264673425e-04  -7.2359452954270191e-05  -9.8823198900166274e-05  5.8205291821375200e-04  8.9098257482148676e-04  -1.0705496071655154e-02  -2.9351018553516314e-03  -5.4018870216041915e-04  2.0786761108981628e-03  3.6141557309749325e-03  3.9272836966848055e-03  3.1579778072310907e-03  1.6974073441050339e-03  9.7721895217379632e-05  -1.0762044327975054e-03  -1.4027427007345123e-03  -7.3510714159774854e-04  2.2129607358555947e-04  -1.1789222689508782e-02  -4.0660364321671843e-03  -4.3490539224702574e-04  2.5513630158378714e-03  4.2484417979244595e-03  4.4676202941839778e-03  3.3278417929355378e-03  1.3072225582732189e-03  -8.8554316187273486e-04  -2.5051148980925197e-03  -2.9748164675792834e-03  -2.0542224209299403e-03  -1.2130492312873472e-04  -1.1974214854412571e-02  -3.3873074729751903e-03  6.6180566967918245e-04  3.7594967219549526e-03  5.3541288556418730e-03  5.1664506286639945e-03  3.3651428785210990e-03  5.8697606148882305e-04  -2.2542121139043619e-03  -4.2231266400742833e-03  -4.6211509178678209e-03  -3.1760931997577243e-03  -1.0054374126398441e-04  -1.1423250729582016e-02  -1.0406680829186910e-03  2.5155534304866353e-03  5.4579014613708012e-03  6.6987783528620658e-03  5.8489634414001391e-03  3.1954588587474130e-03  -4.1905376057185947e-04  -3.8621819196302289e-03  -6.0323263263803821e-03  -6.1622202563464228e-03  -4.0153061400936517e-03  1.4625657105856173e-04  -1.0401121339577237e-02  2.4319907055236857e-03  4.7319475157061759e-03  7.3039419097086682e-03  8.0134209928719100e-03  6.3664520555990027e-03  2.8135969556334871e-03  -1.5881502402174585e-03  -5.5131889266932981e-03  -7.7422500058255276e-03  -7.4956057266642876e-03  -4.6232923965489449e-03  3.6046076317796353e-04  -9.1871754570767555e-03  6.2173436347633749e-03  6.8514533256554726e-03  8.9540160441127122e-03  9.0798261152705909e-03  6.6544214040433888e-03  2.3007168944078732e-03  -2.7414665847401952e-03  -7.0071189287666466e-03  -9.2150822555212546e-03  -8.6130430163691082e-03  -5.1568035224840983e-03  2.5231099082841601e-04  -7.9929274220327702e-03  9.4314891880311509e-03  8.4642304295115926e-03  1.0161493034045465e-02  9.8012940506310552e-03  6.7630855988012181e-03  1.8145178172186160e-03  -3.6815877158773518e-03  -8.1837846441505137e-03  -1.0391634752881700e-02  -9.5886668446401487e-03  -5.8201541940005441e-03  -4.0966635315436008e-04  -6.9172278462234418e-03  1.1106749314747939e-02  9.1113860238612437e-03  1.0654133253464306e-02  1.0054198814994078e-02  6.7065423907838369e-03  1.4572806124993249e-03  -4.2926884560319997e-03  -8.9883767581757385e-03  -1.1330661986757770e-02  -1.0610313333753490e-02  -6.9015198863214920e-03  -1.8992143100577486e-03  -5.9903445333978136e-03  8.1919699554406245e-03  5.1944768086807239e-03  6.3590828554252353e-03  5.8970597772996063e-03  3.2143558172398655e-03  -1.0815936885647834e-03  -5.9036708218134512e-03  -9.9837670633509817e-03  -1.2204505226342921e-02  -1.1894291581072448e-02  -9.0298845817786792e-03  -5.0522174023939570e-03  -6.2286072321799382e-03  5.9315073463566195e-03  -1.3142579695590856e-04  -3.1040840342529200e-03  -6.7999082252414855e-03  -1.1113248498416257e-02  -1.5116911964280354e-02  -1.7866510823246164e-02  -1.8647161428669921e-02  -1.7159209630979440e-02  -1.3607351921415595e-02  -8.7140046436862996e-03  -4.6707049070182985e-03  -1.7386969340963333e-02  8.0413065739461595e-02  7.2663991953344997e-02  4.3530380960325327e-02  2.7589889363828246e-03  -3.9124580410866874e-02  -7.0840837670117590e-02  -8.3800198469346443e-02  -7.4442255523488515e-02  -4.5204938653777588e-02  -3.8920225592997096e-03  3.8352812650175754e-02  6.9436022965573704e-02  7.9241194679054591e-02  8.4081374873833298e-02  7.7039569647057438e-02  4.6099559399989630e-02  2.2854469774302288e-03  -4.2758146498336431e-02  -7.6886211670009280e-02  -9.0828483585741360e-02  -8.0720058134593084e-02  -4.9157502624493157e-02  -4.5274618361011649e-03  4.1171600882098848e-02  7.5398839671054832e-02  8.9261703314657326e-02  9.2805657828060287e-02  8.4210791137172558e-02  5.0674010286581084e-02  2.7966758192084500e-03  -4.6528342478449135e-02  -8.3946123230053460e-02  -9.9276295279900423e-02  -8.8253774270960206e-02  -5.3682690012566411e-02  -4.7028295797086452e-03  4.5613835505888323e-02  8.3747635305179202e-02  9.5607595487992289e-02  1.0311843884170011e-01  9.2962086263782787e-02  5.6197191988664658e-02  3.6378050278584716e-03  -5.0509143793364984e-02  -9.1578977319247953e-02  -1.0839779976702596e-01  -9.6280153219705289e-02  -5.8290780076261588e-02  -4.4368883022198021e-03  5.0980226285262990e-02  9.3256838795423388e-02  1.0296037914935134e-01  1.1443598819330350e-01  1.0271119190091478e-01  6.2279505496463390e-02  4.5696552490531710e-03  -5.4806590258929186e-02  -9.9792823697119781e-02  -1.1816406690371344e-01  -1.0480487927733396e-01  -6.3087636234920252e-02  -3.9813992943938626e-03  5.6865024913770421e-02  1.0342685124155902e-01  1.1141616340725712e-01  1.2631466564585631e-01  1.1306017122516936e-01  6.8618199550405962e-02  5.4022888725140323e-03  -5.9521439750585207e-02  -1.0863631267604645e-01  -1.2861959869619854e-01  -1.1391966513494925e-01  -6.8255753657993828e-02  -3.6345796709215867e-03  6.2852111576952308e-02  1.1372639321775829e-01  1.2120033180962801e-01  1.3846788334947432e-01  1.2373289698439033e-01  7.5016210740596057e-02  6.0120284359084395e-03  -6.4728294053853108e-02  -1.1816667799747559e-01  -1.3983996613915436e-01  -1.2375276433957474e-01  -7.4001303003207897e-02  -3.6897085178666483e-03  6.8568170523967853e-02  1.2372438885449015e-01  1.3249290576657519e-01  1.5083009665999855e-01  1.3462965125439702e-01  8.1433394212578433e-02  6.3819277040277596e-03  -7.0450665761296133e-02  -1.2843671557262884e-01  -1.5192228687484180e-01  -1.3445149303847145e-01  -8.0516882432994596e-02  -4.3690550434911692e-03  7.3784528392111887e-02  1.3322558589317429e-01  1.4539327799844701e-01  1.6357263870652114e-01  1.4585511007861202e-01  8.8001009108653716e-02  6.6092433051613527e-03  -7.6658024168436423e-02  -1.3949202653471574e-01  -1.6497615151270359e-01  -1.4615963652239686e-01  -8.7939831117829062e-02  -5.7618045972672944e-03  7.8494157777796864e-02  1.4234890965713110e-01  1.5990829802926523e-01  1.7705607354028183e-01  1.5768214477346110e-01  9.4978995814685371e-02  6.8682649265214783e-03  -8.3290991691046354e-02  -1.5137967411742900e-01  -1.7911480542509292e-01  -1.5899451370114234e-01  -9.6322478703721820e-02  -7.7962705431286047e-03  8.2921831838961915e-02  1.5150166678122523e-01  1.7595018467754642e-01  1.9167581967901007e-01  1.7033749241811305e-01  1.0256895992232105e-01  7.2570232170839754e-03  -9.0364363254216581e-02  -1.6419747413676075e-01  -1.9446198012848329e-01  -1.7303348798180535e-01  -1.0562609392106434e-01  -1.0265273829363437e-02  8.7473866103767797e-02  1.6115681081849795e-01  1.9329452831242142e-01  2.0568346159012624e-01  1.8134358273089585e-01  1.0807097145371275e-01  5.0717675431822774e-03  -1.0024862513005435e-01  -1.7971509080908932e-01  -2.1203208468735060e-01  -1.8850885032357459e-01  -1.1539339123731840e-01  -1.2207966950347772e-02  9.3439403464219681e-02  1.7274329067520550e-01  2.1125503571890750e-01  2.2812662254757873e-01  2.0314921166454822e-01  1.1852717292115268e-01  1.5448813438480829e-03  -1.1676310486582638e-01  -2.0478301234945540e-01  -2.3892301808497432e-01  -2.0995079182983079e-01  -1.2547698416491795e-01  -7.9375107087837835e-03  1.1133160144229171e-01  2.0011203099254143e-01  2.4876986200390355e-01  1.6079758783400674e-01  1.4296072673699803e-01  8.4241366344320612e-02  2.0540323926505344e-03  -8.1596189916662953e-02  -1.4417948660891286e-01  -1.6882576025390236e-01  -1.4883254609030250e-01  -8.9467706258758370e-02  -6.5687474481339889e-03  7.7679515026203613e-02  1.4041894553507364e-01  1.6480087751754821e-01  1.7390143616485015e-01  1.5527620429034422e-01  9.1394549475151896e-02  2.0341860677427644e-03  -8.8797818524664188e-02  -1.5666664147670939e-01  -1.8327364088520864e-01  -1.6136830677220979e-01  -9.6701909079868614e-02  -6.5004995675171078e-03  8.5137027117938580e-02  1.5377033748185656e-01  1.8046641209878087e-01  1.9191608524983536e-01  1.7037504493289365e-01  1.0040377345989034e-01  2.6155537888332072e-03  -9.6692384548955249e-02  -1.7079953314645496e-01  -1.9972029385579118e-01  -1.7555981114623981e-01  -1.0463730387467896e-01  -5.8040758059960647e-03  9.4604952098893885e-02  1.6992559802289600e-01  1.9532492177646724e-01  2.1168119875984878e-01  1.8720154208901027e-01  1.1054832678718017e-01  3.5999548570337827e-03  -1.0490843320233476e-01  -1.8579478690589388e-01  -2.1724793954125815e-01  -1.9067517357780464e-01  -1.1301160864943351e-01  -4.8726164831533747e-03  1.0496318349963116e-01  1.8736595402503484e-01  2.1148311085663860e-01  2.3275817290128584e-01  2.0525028648508450e-01  1.2145619366297807e-01  4.7090473170459009e-03  -1.1364437230677023e-01  -2.0179616369911282e-01  -2.3598769085046478e-01  -2.0688128209525367e-01  -1.2207111300325747e-01  -4.0608443841306128e-03  1.1575343623493550e-01  2.0559545918196137e-01  2.2922718706968562e-01  2.5476774483350551e-01  2.2415971667707457e-01  1.3282620020161870e-01  5.7019792302222183e-03  -1.2310287330513200e-01  -2.1899527388326812e-01  -2.5614963594266349e-01  -2.2443428493121706e-01  -1.3213764686172066e-01  -3.7618256886115444e-03  1.2652531030310871e-01  2.2413626833291281e-01  2.4893090535340226e-01  2.7757577268125311e-01  2.4378673740185494e-01  1.4451939728488325e-01  6.4262021729779486e-03  -1.3346603952416897e-01  -2.3761047385011355e-01  -2.7798594644919222e-01  -2.4361132662598420e-01  -1.4350079620978548e-01  -4.2634236526190809e-03  1.3700727062343998e-01  2.4275242932628630e-01  2.7094778635982258e-01  3.0136017404431664e-01  2.6426473793284755e-01  1.5660952987293511e-01  6.8598661212933001e-03  -1.4486128989815292e-01  -2.5785633309305922e-01  -3.0175685646150652e-01  -2.6466531335683724e-01  -1.5635520118030694e-01  -5.6654411300422532e-03  1.4720950231719765e-01  2.6156307408960833e-01  2.9556879569138206e-01  3.2658780593168907e-01  2.8599513484144334e-01  1.6938028728770751e-01  7.1193729357501914e-03  -1.5734408587992291e-01  -2.7991847196013531e-01  -3.2769997344757185e-01  -2.8779126627113982e-01  -1.7076647214711621e-01  -7.8479046206181707e-03  1.5744827449269153e-01  2.8105381125700657e-01  3.2297855984253254e-01  3.5392657371068409e-01  3.0956962581433051e-01  1.8326887476009532e-01  7.4293728376341904e-03  -1.7090339636275292e-01  -3.0394045941304404e-01  -3.5600916288623874e-01  -3.1311035027269241e-01  -1.8667284445166044e-01  -1.0497024481126476e-02  1.6828778308077588e-01  3.0198112119306580e-01  3.5322896324209868e-01  3.8410109155908484e-01  3.3555923034541008e-01  1.9870718030366438e-01  8.0093518245386575e-03  -1.8552589383666496e-01  -3.3004526434395687e-01  -3.8683021735597817e-01  -3.4066247741746075e-01  -2.0389815505959502e-01  -1.3153562705035491e-02  1.8048726714745825e-01  3.2514687801236564e-01  3.8622026731140230e-01  4.1512162066491831e-01  3.6164943400197141e-01  2.1317924383410292e-01  6.3580685192636708e-03  -2.0335288695975207e-01  -3.5970617721835280e-01  -4.2075583559655427e-01  -3.7007739625598007e-01  -2.2116804583888958e-01  -1.3829654220168025e-02  1.9653454296442280e-01  3.5328275127463410e-01  4.2190734577361944e-01  4.5657455639254807e-01  3.9969255430970801e-01  2.3265751349777455e-01  2.5047115091968021e-03  -2.2910206567707178e-01  -4.0008254603561705e-01  -4.6455605520992693e-01  -4.0511539905330701e-01  -2.3749848973668067e-01  -6.3885445837825452e-03  2.2652541987698246e-01  3.9923555429812713e-01  4.9228989823592889e-01  2.4224804022521337e-01  2.1351432623073932e-01  1.2467578509649896e-01  1.1527605899491612e-03  -1.2398842482851456e-01  -2.1710518900416254e-01  -2.5314979529519294e-01  -2.2236127568336903e-01  -1.3288244977461722e-01  -8.5834081968924406e-03  1.1731961531762641e-01  2.1117450092534057e-01  2.4929578029496866e-01  2.6335586754115042e-01  2.3337671180931649e-01  1.3636223940996600e-01  1.6887294460934080e-03  -1.3451200723407331e-01  -2.3567805877756046e-01  -2.7461179759501625e-01  -2.4077338285082178e-01  -1.4310920150581949e-01  -7.6606701956080389e-03  1.2940930221799501e-01  2.3165443616847592e-01  2.7040451474560478e-01  2.9004311723588461e-01  2.5582473447863435e-01  1.4957633719254657e-01  2.3641078723730820e-03  -1.4630039858377217e-01  -2.5651926723051360e-01  -2.9866510909317623e-01  -2.6132025404018477e-01  -1.5434089724899164e-01  -6.2229017760754863e-03  1.4352991389301872e-01  2.5511951084685847e-01  2.9343566249728098e-01  3.1893751458009917e-01  2.8033770480615600e-01  1.6418916552208931e-01  3.5286166511622886e-03  -1.5855769641097123e-01  -2.7858713963957432e-01  -3.2430153102343540e-01  -2.8331401829115477e-01  -1.6643438775665464e-01  -4.7818987060615275e-03  1.5854275444948207e-01  2.8012310543249719e-01  3.1836883200627969e-01  3.4955075300110094e-01  3.0639776531960544e-01  1.7981504284920377e-01  4.8663864802563237e-03  -1.7155775442291107e-01  -3.0214586061454207e-01  -3.5181349137876405e-01  -3.0710938727100062e-01  -1.7982842501730359e-01  -3.8636405049915531e-03  1.7385928773480733e-01  3.0606546057802075e-01  3.4546256024407124e-01  3.8155148216324863e-01  3.3371195161182249e-01  1.9617182899927008e-01  6.0879348093014754e-03  -1.8561718249323803e-01  -3.2754860039110573e-01  -3.8159070448863019e-01  -3.3312537973168543e-01  -1.9495911330725793e-01  -3.9057692731102145e-03  1.8905826188499214e-01  3.3255979480296399e-01  3.7515483801368227e-01  4.1494346413846678e-01  3.6227974639984889e-01  2.1317647399216547e-01  6.9997428627604791e-03  -2.0103937491391966e-01  -3.5517903469299461e-01  -4.1404661440270912e-01  -3.6174791768466141e-01  -2.1213577294849967e-01  -5.1117706335540502e-03  2.0404609392348930e-01  3.5960508379695150e-01  4.0790975592904843e-01  4.5011678513776310e-01  3.9243718729275495e-01  2.3099320398333098e-01  7.5564468883721567e-03  -2.1806089260678149e-01  -3.8539673632089216e-01  -4.4956248264468218e-01  -3.9327181994254862e-01  -2.3147997552687302e-01  -7.3868603598124640e-03  2.1912358398850348e-01  3.8764867056340285e-01  4.4415315810505751e-01  4.8779078339483267e-01  4.2481763226694169e-01  2.5001928906974125e-01  7.8739693487144269e-03  -2.3681779862784100e-01  -4.1849377322331266e-01  -4.8844669934684298e-01  -4.2787429508799835e-01  -2.5292095709214479e-01  -1.0357925497566471e-02  2.3494228089103633e-01  4.1752624302850777e-01  4.8421100831409186e-01  5.2888302318155389e-01  4.6023579776751600e-01  2.7081133889681902e-01  8.1995132648477447e-03  -2.5734224837766628e-01  -4.5467457660505406e-01  -5.3091916081669055e-01  -4.6562495480649552e-01  -2.7624660750011065e-01  -1.3468236374050709e-02  2.5236839667269639e-01  4.5029568911963169e-01  5.2826926844146305e-01  5.7433468865963100e-01  4.9945168607790980e-01  2.9391746870522711e-01  8.8004270856423469e-03  -2.7961965487011903e-01  -4.9407245498051561e-01  -5.7710974418830907e-01  -5.0649199607454221e-01  -3.0114062884379272e-01  -1.6057269093852054e-02  2.7240346994480774e-01  4.8698596315806425e-01  5.7635478717202593e-01  6.2211613563664669e-01  5.4024639961030896e-01  3.1694162587728286e-01  7.3353105490928331e-03  -3.0555759355145368e-01  -5.3780994040195995e-01  -6.2710448693187937e-01  -5.4942165247258234e-01  -3.2547498317739898e-01  -1.5153049473963997e-02  2.9858988803866193e-01  5.3137605508483909e-01  6.2877857015135785e-01  6.8206851758992848e-01  5.9349767295165645e-01  3.4476281358095928e-01  3.0304538612088228e-03  -3.4010378685696785e-01  -5.9261488534519136e-01  -6.8672222936002669e-01  -5.9704052367922478e-01  -3.4738922723157556e-01  -4.4219590803224193e-03  3.4021745783839968e-01  5.9482597860504394e-01  7.2768541912166218e-01  3.2337917886960243e-01  2.8327541944194690e-01  1.6446500123378857e-01  1.7390969563068021e-04  -1.6573846535122261e-01  -2.8874180228049939e-01  -3.3579216906824033e-01  -2.9417763437040462e-01  -1.7492654238403160e-01  -9.8569757583797570e-03  1.5694051061400272e-01  2.8117005294281466e-01  3.3177594852429593e-01  3.5152382617918326e-01  3.1021267277755138e-01  1.8041847645211645e-01  1.1653875319965936e-03  -1.7949870733215545e-01  -3.1315239201547451e-01  -3.6392627912366998e-01  -3.1812601092356241e-01  -1.8790590170785726e-01  -8.0163765654437964e-03  1.7350385112806818e-01  3.0840224475178235e-01  3.5851257538933090e-01  3.8632429279045910e-01  3.3948927655377836e-01  1.9759267985589496e-01  1.9578142969563458e-03  -1.9494513000346239e-01  -3.4034476897536436e-01  -3.9522740727444006e-01  -3.4478968977618801e-01  -2.0240935366876553e-01  -6.0676049637976110e-03  1.9181748391693446e-01  3.3859782710914116e-01  3.8941182619759013e-01  4.2390288208512761e-01  3.7127961161838280e-01  2.1646578693536031e-01  3.3134013593847794e-03  -2.1105758456584031e-01  -3.6920733990930682e-01  -4.2870881407500677e-01  -3.7351615324756654e-01  -2.1826956720396454e-01  -4.3824602144615157e-03  2.1103973021854844e-01  3.7063637769047286e-01  4.2284379574792619e-01  4.6371651695263599e-01  4.0507835777733248e-01  2.3667890554224721e-01  4.9011167301414808e-03  -2.2818204453952382e-01  -4.0013021000212118e-01  -4.6482596288179612e-01  -4.0483372182203653e-01  -2.3607891317796115e-01  -3.5931601746656541e-03  2.3053341740989430e-01  4.0390711056834783e-01  4.5910370516274873e-01  5.0549201663959820e-01  4.4067229439483957e-01  2.5797734852851423e-01  6.3879906451578157e-03  -2.4674515557108206e-01  -4.3361977830226600e-01  -5.0412945786794749e-01  -4.3929131308998465e-01  -2.5634047402572335e-01  -4.1250762648450262e-03  2.4996322987848310e-01  4.3816067981354473e-01  4.9867471222558579e-01  5.4935788178900558e-01  4.7818649917357192e-01  2.8031980287070341e-01  7.5347394098753068e-03  -2.6716298815041828e-01  -4.7020080414308962e-01  -5.4715528539877223e-01  -4.7733545313172876e-01  -2.7933393743012269e-01  -6.0566858284479925e-03  2.6943566481839348e-01  4.7362873283516960e-01  5.4208872144509179e-01  5.9587142928268910e-01  5.1810518343265999e-01  3.0392299581049353e-01  8.2595341157870612e-03  -2.8976726875847458e-01  -5.1034061938375297e-01  -5.9435483943255918e-01  -5.1925228716950023e-01  -3.0507251730198021e-01  -9.0907675983546155e-03  2.8951649938884116e-01  5.1103145758805535e-01  5.8984820852327602e-01  6.4593378096762011e-01  5.6120870999417327e-01  3.2924106713427981e-01  8.6579904442956636e-03  -3.1475930559452858e-01  -5.5439682515633271e-01  -6.4605731361462915e-01  -5.6516197658345313e-01  -3.3333858013713480e-01  -1.2630300136558867e-02  3.1112362954827205e-01  5.5145937070920314e-01  6.4236037537324864e-01  7.0062899346187790e-01  6.0843474632720140e-01  3.5688374984712912e-01  8.9746856554793475e-03  -3.4220361183827619e-01  -6.0260139161221060e-01  -7.0247242285721756e-01  -6.1506445640875840e-01  -3.6378636527575586e-01  -1.5934836110209478e-02  3.3532917889784980e-01  5.9615956771445522e-01  6.9989741952150608e-01  7.6104678565561368e-01  6.6063458505865502e-01  3.8745219833444816e-01  9.4994693418779027e-03  -3.7207945973079543e-01  -6.5507770237045904e-01  -7.6369774286078884e-01  -6.6886209054630075e