<?xml version="1.0"?>
<VTKFile type="UnstructuredGrid"  version="0.1"  >
<UnstructuredGrid>
<Piece  NumberOfPoints="2197" NumberOfCells="10368">
<Points>
<DataArray  type="Float64"  NumberOfComponents="3"  format="ascii">0 0 0  0.08333333333333333 0 0  0.1666666666666667 0 0  0.25 0 0  0.3333333333333333 0 0  0.4166666666666667 0 0  0.5 0 0  0.5833333333333334 0 0  0.6666666666666666 0 0  0.75 0 0  0.8333333333333334 0 0  0.9166666666666666 0 0  1 0 0  0 0.08333333333333333 0  0.08333333333333333 0.08333333333333333 0  0.1666666666666667 0.08333333333333333 0  0.25 0.08333333333333333 0  0.3333333333333333 0.08333333333333333 0  0.4166666666666667 0.08333333333333333 0  0.5 0.08333333333333333 0  0.5833333333333334 0.08333333333333333 0  0.6666666666666666 0.08333333333333333 0  0.75 0.08333333333333333 0  0.8333333333333334 0.08333333333333333 0  0.9166666666666666 0.08333333333333333 0  1 0.08333333333333333 0  0 0.1666666666666667 0  0.08333333333333333 0.1666666666666667 0  0.1666666666666667 0.1666666666666667 0  0.25 0.1666666666666667 0  0.3333333333333333 0.1666666666666667 0  0.4166666666666667 0.1666666666666667 0  0.5 0.1666666666666667 0  0.5833333333333334 0.1666666666666667 0  0.6666666666666666 0.1666666666666667 0  0.75 0.1666666666666667 0  0.8333333333333334 0.1666666666666667 0  0.9166666666666666 0.1666666666666667 0  1 0.1666666666666667 0  0 0.25 0  0.08333333333333333 0.25 0  0.1666666666666667 0.25 0  0.25 0.25 0  0.3333333333333333 0.25 0  0.4166666666666667 0.25 0  0.5 0.25 0  0.5833333333333334 0.25 0  0.6666666666666666 0.25 0  0.75 0.25 0  0.8333333333333334 0.25 0  0.9166666666666666 0.25 0  1 0.25 0  0 0.3333333333333333 0  0.08333333333333333 0.3333333333333333 0  0.1666666666666667 0.3333333333333333 0  0.25 0.3333333333333333 0  0.3333333333333333 0.3333333333333333 0  0.4166666666666667 0.3333333333333333 0  0.5 0.3333333333333333 0  0.5833333333333334 0.3333333333333333 0  0.6666666666666666 0.3333333333333333 0  0.75 0.3333333333333333 0  0.8333333333333334 0.3333333333333333 0  0.9166666666666666 0.3333333333333333 0  1 0.3333333333333333 0  0 0.4166666666666667 0  0.08333333333333333 0.4166666666666667 0  0.1666666666666667 0.4166666666666667 0  0.25 0.4166666666666667 0  0.3333333333333333 0.4166666666666667 0  0.4166666666666667 0.4166666666666667 0  0.5 0.4166666666666667 0  0.5833333333333334 0.4166666666666667 0  0.6666666666666666 0.4166666666666667 0  0.75 0.4166666666666667 0  0.8333333333333334 0.4166666666666667 0  0.9166666666666666 0.4166666666666667 0  1 0.4166666666666667 0  0 0.5 0  0.08333333333333333 0.5 0  0.1666666666666667 0.5 0  0.25 0.5 0  0.3333333333333333 0.5 0  0.4166666666666667 0.5 0  0.5 0.5 0  0.5833333333333334 0.5 0  0.6666666666666666 0.5 0  0.75 0.5 0  0.8333333333333334 0.5 0  0.9166666666666666 0.5 0  1 0.5 0  0 0.5833333333333334 0  0.08333333333333333 0.5833333333333334 0  0.1666666666666667 0.5833333333333334 0  0.25 0.5833333333333334 0  0.3333333333333333 0.5833333333333334 0  0.4166666666666667 0.5833333333333334 0  0.5 0.5833333333333334 0  0.5833333333333334 0.5833333333333334 0  0.6666666666666666 0.5833333333333334 0  0.75 0.5833333333333334 0  0.8333333333333334 0.5833333333333334 0  0.9166666666666666 0.5833333333333334 0  1 0.5833333333333334 0  0 0.6666666666666666 0  0.08333333333333333 0.6666666666666666 0  0.1666666666666667 0.6666666666666666 0  0.25 0.6666666666666666 0  0.3333333333333333 0.6666666666666666 0  0.4166666666666667 0.6666666666666666 0  0.5 0.6666666666666666 0  0.5833333333333334 0.6666666666666666 0  0.6666666666666666 0.6666666666666666 0  0.75 0.6666666666666666 0  0.8333333333333334 0.6666666666666666 0  0.9166666666666666 0.6666666666666666 0  1 0.6666666666666666 0  0 0.75 0  0.08333333333333333 0.75 0  0.1666666666666667 0.75 0  0.25 0.75 0  0.3333333333333333 0.75 0  0.4166666666666667 0.75 0  0.5 0.75 0  0.5833333333333334 0.75 0  0.6666666666666666 0.75 0  0.75 0.75 0  0.8333333333333334 0.75 0  0.9166666666666666 0.75 0  1 0.75 0  0 0.8333333333333334 0  0.08333333333333333 0.8333333333333334 0  0.1666666666666667 0.8333333333333334 0  0.25 0.8333333333333334 0  0.3333333333333333 0.8333333333333334 0  0.4166666666666667 0.8333333333333334 0  0.5 0.8333333333333334 0  0.5833333333333334 0.8333333333333334 0  0.6666666666666666 0.8333333333333334 0  0.75 0.8333333333333334 0  0.8333333333333334 0.8333333333333334 0  0.9166666666666666 0.8333333333333334 0  1 0.8333333333333334 0  0 0.9166666666666666 0  0.08333333333333333 0.9166666666666666 0  0.1666666666666667 0.9166666666666666 0  0.25 0.9166666666666666 0  0.3333333333333333 0.9166666666666666 0  0.4166666666666667 0.9166666666666666 0  0.5 0.9166666666666666 0  0.5833333333333334 0.9166666666666666 0  0.6666666666666666 0.9166666666666666 0  0.75 0.9166666666666666 0  0.8333333333333334 0.9166666666666666 0  0.9166666666666666 0.9166666666666666 0  1 0.9166666666666666 0  0 1 0  0.08333333333333333 1 0  0.1666666666666667 1 0  0.25 1 0  0.3333333333333333 1 0  0.4166666666666667 1 0  0.5 1 0  0.5833333333333334 1 0  0.6666666666666666 1 0  0.75 1 0  0.8333333333333334 1 0  0.9166666666666666 1 0  1 1 0  0 0 0.08333333333333333  0.08333333333333333 0 0.08333333333333333  0.1666666666666667 0 0.08333333333333333  0.25 0 0.08333333333333333  0.3333333333333333 0 0.08333333333333333  0.4166666666666667 0 0.08333333333333333  0.5 0 0.08333333333333333  0.5833333333333334 0 0.08333333333333333  0.6666666666666666 0 0.08333333333333333  0.75 0 0.08333333333333333  0.8333333333333334 0 0.08333333333333333  0.9166666666666666 0 0.08333333333333333  1 0 0.08333333333333333  0 0.08333333333333333 0.08333333333333333  0.08333333333333333 0.08333333333333333 0.08333333333333333  0.1666666666666667 0.08333333333333333 0.08333333333333333  0.25 0.08333333333333333 0.08333333333333333  0.3333333333333333 0.08333333333333333 0.08333333333333333  0.4166666666666667 0.08333333333333333 0.08333333333333333  0.5 0.08333333333333333 0.08333333333333333  0.5833333333333334 0.08333333333333333 0.08333333333333333  0.6666666666666666 0.08333333333333333 0.08333333333333333  0.75 0.08333333333333333 0.08333333333333333  0.8333333333333334 0.08333333333333333 0.08333333333333333  0.9166666666666666 0.08333333333333333 0.08333333333333333  1 0.08333333333333333 0.08333333333333333  0 0.1666666666666667 0.08333333333333333  0.08333333333333333 0.1666666666666667 0.08333333333333333  0.1666666666666667 0.1666666666666667 0.08333333333333333  0.25 0.1666666666666667 0.08333333333333333  0.3333333333333333 0.1666666666666667 0.08333333333333333  0.4166666666666667 0.1666666666666667 0.08333333333333333  0.5 0.1666666666666667 0.08333333333333333  0.5833333333333334 0.1666666666666667 0.08333333333333333  0.6666666666666666 0.1666666666666667 0.08333333333333333  0.75 0.1666666666666667 0.08333333333333333  0.8333333333333334 0.1666666666666667 0.08333333333333333  0.9166666666666666 0.1666666666666667 0.08333333333333333  1 0.1666666666666667 0.08333333333333333  0 0.25 0.08333333333333333  0.08333333333333333 0.25 0.08333333333333333  0.1666666666666667 0.25 0.08333333333333333  0.25 0.25 0.08333333333333333  0.3333333333333333 0.25 0.08333333333333333  0.4166666666666667 0.25 0.08333333333333333  0.5 0.25 0.08333333333333333  0.5833333333333334 0.25 0.08333333333333333  0.6666666666666666 0.25 0.08333333333333333  0.75 0.25 0.08333333333333333  0.8333333333333334 0.25 0.08333333333333333  0.9166666666666666 0.25 0.08333333333333333  1 0.25 0.08333333333333333  0 0.3333333333333333 0.08333333333333333  0.08333333333333333 0.3333333333333333 0.08333333333333333  0.1666666666666667 0.3333333333333333 0.08333333333333333  0.25 0.3333333333333333 0.08333333333333333  0.3333333333333333 0.3333333333333333 0.08333333333333333  0.4166666666666667 0.3333333333333333 0.08333333333333333  0.5 0.3333333333333333 0.08333333333333333  0.5833333333333334 0.3333333333333333 0.08333333333333333  0.6666666666666666 0.3333333333333333 0.08333333333333333  0.75 0.3333333333333333 0.08333333333333333  0.8333333333333334 0.3333333333333333 0.08333333333333333  0.9166666666666666 0.3333333333333333 0.08333333333333333  1 0.3333333333333333 0.08333333333333333  0 0.4166666666666667 0.08333333333333333  0.08333333333333333 0.4166666666666667 0.08333333333333333  0.1666666666666667 0.4166666666666667 0.08333333333333333  0.25 0.4166666666666667 0.08333333333333333  0.3333333333333333 0.4166666666666667 0.08333333333333333  0.4166666666666667 0.4166666666666667 0.08333333333333333  0.5 0.4166666666666667 0.08333333333333333  0.5833333333333334 0.4166666666666667 0.08333333333333333  0.6666666666666666 0.4166666666666667 0.08333333333333333  0.75 0.4166666666666667 0.08333333333333333  0.8333333333333334 0.4166666666666667 0.08333333333333333  0.9166666666666666 0.4166666666666667 0.08333333333333333  1 0.4166666666666667 0.08333333333333333  0 0.5 0.08333333333333333  0.08333333333333333 0.5 0.08333333333333333  0.1666666666666667 0.5 0.08333333333333333  0.25 0.5 0.08333333333333333  0.3333333333333333 0.5 0.08333333333333333  0.4166666666666667 0.5 0.08333333333333333  0.5 0.5 0.08333333333333333  0.5833333333333334 0.5 0.08333333333333333  0.6666666666666666 0.5 0.08333333333333333  0.75 0.5 0.08333333333333333  0.8333333333333334 0.5 0.08333333333333333  0.9166666666666666 0.5 0.08333333333333333  1 0.5 0.08333333333333333  0 0.5833333333333334 0.08333333333333333  0.08333333333333333 0.5833333333333334 0.08333333333333333  0.1666666666666667 0.5833333333333334 0.08333333333333333  0.25 0.5833333333333334 0.08333333333333333  0.3333333333333333 0.5833333333333334 0.08333333333333333  0.4166666666666667 0.5833333333333334 0.08333333333333333  0.5 0.5833333333333334 0.08333333333333333  0.5833333333333334 0.5833333333333334 0.08333333333333333  0.6666666666666666 0.5833333333333334 0.08333333333333333  0.75 0.5833333333333334 0.08333333333333333  0.8333333333333334 0.5833333333333334 0.083
[...]
<PointData  Tensors="f_1644"> 
<DataArray  type="Float64"  Name="f_1644"  NumberOfComponents="9" format="ascii">-1.0800678797383575e-05 9.9596445800770594e-03 1.7720583427946988e-02 8.6458730719590031e-03 -2.0708518742840612e-03 3.7478944254069710e-02 -1.1438433590228303e-02 -1.5411948539740240e-02 -2.1262379247716665e+00  1.0543295021640564e-02 2.9797248798021769e-02 8.4223282292813872e-01 1.5480295012046412e-02 8.3394744648261111e-03 4.2399781398138554e-02 -1.6722324714105097e+00 -3.3206161252538724e-02 -1.9846488787472287e+00  1.5417935750741798e-02 4.5775733267689703e-02 1.6096096010271062e+00 2.1666258039395737e-02 1.5052488704579843e-02 4.4124818057115017e-02 -3.2134310778239152e+00 -4.7319956066621115e-02 -1.6026325109125121e+00  1.8077639442621109e-02 5.7956339495712779e-02 2.2673157765963534e+00 2.6170914592903223e-02 2.0950960222884372e-02 4.3290780976196409e-02 -4.5352292124205240e+00 -5.7539491915749738e-02 -1.0793215773069200e+00  1.9618061590067331e-02 6.5400626157543898e-02 2.7713240925930704e+00 2.8898119920941323e-02 2.5630214622761591e-02 4.0883066054757618e-02 -5.5473362657583642e+00 -6.2432488656197445e-02 -5.5534303365737570e-01  1.9745383898960200e-02 6.7741112113921559e-02 3.0878334204632765e+00 2.9824431125819159e-02 2.7913540723413479e-02 3.7907791977901464e-02 -6.1808491839181094e+00 -6.0971565666108334e-02 -1.7144644039853876e-01  1.8179722220516784e-02 6.5150766159189633e-02 3.1954785237145384e+00 2.9026762861228968e-02 2.6838880081037225e-02 3.5004249150253942e-02 -6.3928660733968599e+00 -5.2909814597723578e-02 -3.0178659057869310e-02  1.4844707906767816e-02 5.8226008590410355e-02 3.0867118004471705e+00 2.6641222008567951e-02 2.1970671175336229e-02 3.2270205088497261e-02 -6.1693413515378692e+00 -3.8900281982029543e-02 -1.6839623532715212e-01  9.9300837250138399e-03 4.7831432131824191e-02 2.7683718159418071e+00 2.2831571765502819e-02 1.3572231112076087e-02 2.9278487782596348e-02 -5.5259340072591829e+00 -2.0426237636805827e-02 -5.4745549268705340e-01  3.9023736933813183e-03 3.4943160054093023e-02 2.2613822064723950e+00 1.7777620144385973e-02 2.6182847883080263e-03 2.5268268959423336e-02 -4.5068236803327686e+00 4.3937428834194464e-04 -1.0636702103700615e+00  -2.4721420355226526e-03 2.0547932680402219e-02 1.5995716188036082e+00 1.1675789258485392e-02 -9.3016260793498100e-03 1.9451885642248676e-02 -3.1816233570243102e+00 2.1372431238149893e-02 -1.5761976487966449e+00  -7.2613862068936271e-03 5.5808045051897312e-03 8.2747303510064030e-01 4.7623148143823213e-03 -1.8495640839996084e-02 1.1098451112663771e-02 -1.6406659707519482e+00 4.0140417178800736e-02 -1.9438675523319375e+00  -5.3149208101488455e-03 1.2621774329336539e-03 4.5241558256880348e-04 1.1412533434088015e-03 -2.1417583208052466e-03 1.2404270588962469e-03 -1.0771518756139242e-02 1.5498914853313761e-02 -2.0309590500662185e+00  2.0009300798675585e-02 1.7692517841077969e-02 2.4783313469447777e-02 1.0641104817356009e-02 2.6012527754791698e-02 8.6109230766341693e-01 -2.7561479535655086e-02 -1.6879382498825806e+00 -1.9841223979558025e+00  2.5110654693991520e-02 3.6247452241175766e-02 8.1927425039876400e-01 1.7590123535518327e-02 3.1052905919573992e-02 8.3642750857501336e-01 -1.6258337947172872e+00 -1.6458731182839936e+00 -1.8505854566481656e+00  2.4845216197739009e-02 5.0014815265683008e-02 1.5582371472052292e+00 2.2764377091117484e-02 3.2864045428261483e-02 7.5456158475054291e-01 -3.1131068490310669e+00 -1.4902704980240076e+00 -1.4938961891683891e+00  2.2706375624744597e-02 5.9286228362095024e-02 2.1916878322530740e+00 2.6158843366844455e-02 3.2923654263675758e-02 6.2222534199075397e-01 -4.3872378394094333e+00 -1.2324256735142147e+00 -1.0066899416431017e+00  1.9772937437567785e-02 6.3517270204954832e-02 2.6771235496982118e+00 2.7679248541719981e-02 3.1446578028218666e-02 4.4896595388669885e-01 -5.3611222097517013e+00 -8.8948747415209828e-01 -5.1961219724834740e-01  1.6332811982771957e-02 6.2679898342529919e-02 2.9818012197155199e+00 2.7382610331962966e-02 2.8135023073412011e-02 2.4698340112385128e-01 -5.9685696516536595e+00 -4.8456415063533942e-01 -1.6254004814470241e-01  1.2508099105859536e-02 5.7274721146472606e-02 3.0848792670297751e+00 2.5443269835552656e-02 2.2721132937383232e-02 3.0080915789124918e-02 -6.1687003270917984e+00 -4.5236443847330929e-02 -2.9689225634210645e-02  8.3038534497240322e-03 4.8192350090172496e-02 2.9788304701894921e+00 2.2104825381354016e-02 1.5120373199355655e-02 -1.8731737840266421e-01 -5.9485923904183986e+00 3.9831690097204597e-01 -1.5448720640697788e-01  3.6784513135547691e-03 3.6514400442714347e-02 2.6700869704941854e+00 1.7634321009640797e-02 5.5591571919349249e-03 -3.9106238641430230e-01 -5.3239693473020928e+00 8.1543902110369837e-01 -5.0076784263432195e-01  -1.3564863801729346e-03 2.3314791219417184e-02 2.1788313868215154e+00 1.2292837475363513e-02 -5.3557084669907983e-03 -5.6807213674943591e-01 -4.3379324177486991e+00 1.1771988232623112e+00 -9.7264790088540898e-01  -6.6198148780821043e-03 9.5083962740764947e-03 1.5379100482539274e+00 6.3223453880644617e-03 -1.6613985455723217e-02 -7.0702777291262686e-01 -3.0578936908407202e+00 1.4584938832528427e+00 -1.4404592336303936e+00  -1.1051916710372799e-02 -4.1342844872617702e-03 7.9070487826153801e-01 -4.5557701897114313e-06 -2.5343203162253074e-02 -7.9921744876473455e-01 -1.5710180030264400e+00 1.6401559904637057e+00 -1.7749049627255236e+00  -6.6828343801213306e-03 3.0794952180226041e-03 4.7630650553736756e-03 5.5869209132779433e-03 4.8762066825665702e-03 -8.2219199123067921e-01 -1.1173073905072373e-02 1.6465247615852412e+00 -1.8757631164203574e+00  3.1247873338788805e-02 2.4576341819273071e-02 3.0057904193588631e-02 1.2463725193914945e-02 4.7087452267039247e-02 1.6246190518977979e+00 -4.2352810726681775e-02 -3.2460320023983518e+00 -1.6023621915709327e+00  3.1354865287201543e-02 4.0277828275612514e-02 7.4028564471536973e-01 1.7596494483253778e-02 4.8133545529278704e-02 1.5722622359770873e+00 -1.4678896838165241e+00 -3.1469333037675637e+00 -1.4923375994553285e+00  2.8725144736010677e-02 5.0623156140889525e-02 1.4009788675231827e+00 2.1597981431629592e-02 4.5345642802861706e-02 1.4136980546307640e+00 -2.7995134222127507e+00 -2.8320804342451900e+00 -1.2051184074655195e+00  2.4676876634394423e-02 5.6483439764041243e-02 1.9671941247978126e+00 2.3907471207425049e-02 4.0367960301178576e-02 1.1597937330301789e+00 -3.9390201263118638e+00 -2.3235904071889411e+00 -8.1391222580581279e-01  1.9888350003405341e-02 5.7468021957342373e-02 2.4008487136538164e+00 2.4425414580531386e-02 3.3862153459995867e-02 8.2796700779600074e-01 -4.8085037455927298e+00 -1.6561342137259170e+00 -4.2291778040617845e-01  1.4658932136853105e-02 5.3793878626879212e-02 2.6725429237610707e+00 2.3199638967947654e-02 2.6188095411341740e-02 4.4071035937853759e-01 -5.3489429828481132e+00 -8.7541885011731468e-01 -1.3523823890371009e-01  9.1398104495870897e-03 4.6188570925783240e-02 2.7634776479933789e+00 2.0420161902739976e-02 1.7555748807247373e-02 2.4060135391994187e-02 -5.5241363601130358e+00 -3.4962508682439296e-02 -2.5409704969407410e-02  3.3553627530928929e-03 3.5718431488308305e-02 2.6668027325449226e+00 1.6377482081285196e-02 8.0697981522908791e-03 -3.9409774240399104e-01 -5.3230010747693068e+00 8.0763627851786757e-01 -1.1964387822844248e-01  -2.7135544755833387e-03 2.3570109723928583e-02 2.3882605377541206e+00 1.1416083614921102e-02 -2.1544369585838469e-03 -7.8579793773206541e-01 -4.7600984959332830e+00 1.5947101170010272e+00 -3.8903385030113835e-01  -9.0167121209781716e-03 1.0841973775018528e-02 1.9460330073221483e+00 5.8924728579414741e-03 -1.2855822934489889e-02 -1.1247632956593430e+00 -3.8744116866670031e+00 2.2725188370929450e+00 -7.5755393675554006e-01  -1.5314532496109480e-02 -1.6037726976611071e-03 1.3697544264108867e+00 1.4159223864160524e-04 -2.3491599212159424e-02 -1.3880924801069150e+00 -2.7265359009103012e+00 2.7949414379343840e+00 -1.1227160810491803e+00  -2.0613931088993061e-02 -1.2979399715922569e-02 6.9865489333449882e-01 -5.4553877430019299e-03 -3.1908591094892552e-02 -1.5580872936873751e+00 -1.3945236727717785e+00 3.1269835668080033e+00 -1.3826101304060046e+00  -9.6797952312358757e-03 6.0811573285597404e-03 8.5641679647484974e-03 1.0017770246959273e-02 2.0104170079226621e-03 -1.5917856099954548e+00 -1.4578243158938431e-02 3.1756377765136845e+00 -1.4834663126411918e+00  3.9124144429843674e-02 2.9582346112073946e-02 3.3757683771326825e-02 1.3587633871364543e-02 6.3613518706862354e-02 2.2774510861606907e+00 -5.3863129195243706e-02 -4.5823633188591266e+00 -1.0801737434026879e+00  3.5033862700571100e-02 4.1060277867069034e-02 6.1222968427450919e-01 1.6146355840237651e-02 6.0575539761348489e-02 2.2014975559688064e+00 -1.2092889835797855e+00 -4.4327882272237478e+00 -1.0048612910980026e+00  3.0848730083970724e-02 4.7196230610871373e-02 1.1500523265496922e+00 1.8679374560492540e-02 5.3520633169662525e-02 1.9772121048678504e+00 -2.2939694688287675e+00 -3.9800542244333408e+00 -8.1384225522101683e-01  2.5420350942689629e-02 4.9265632672376235e-02 1.6104530292039305e+00 1.9761802123266475e-02 4.3970103963137441e-02 1.6190730195953276e+00 -3.2210199862382853e+00 -3.2556301743965026e+00 -5.5377236354475423e-01  1.9151198444897141e-02 4.7104304703364609e-02 1.9623305659888832e+00 1.9312680507913099e-02 3.3197982327161944e-02 1.1510976060614433e+00 -3.9270782831154567e+00 -2.3093503590396725e+00 -2.9281477763001440e-01  1.2382808234650707e-02 4.1116260991403919e-02 2.1817291469052638e+00 1.7351226480196508e-02 2.2145694382082824e-02 6.0458623857204330e-01 -4.3642510520053559e+00 -1.2063494573107332e+00 -9.8278487248534802e-02  5.3213871696425044e-03 3.2131971712835626e-02 2.2533799119839322e+00 1.4039716087315702e-02 1.1365941244898335e-02 1.6135985614422740e-02 -4.5033288459360765e+00 -2.2353613550731177e-02 -1.8827609646684937e-02  -1.9331779000118913e-03 2.1240021695537299e-02 2.1718261585506022e+00 9.6637129802792984e-03 1.0131843467479846e-03 -5.7468455275514563e-01 -4.3356196948027055e+00 1.1616296153065091e+00 -7.1709314906982832e-02  -9.3035275093745397e-03 9.5852756896708073e-03 1.9419518803310805e+00 4.5965355405554889e-03 -9.0208165824968694e-03 -1.1278901292004953e+00 -3.8733311558297512e+00 2.2649176568284100e+00 -2.3841851664916383e-01  -1.6631466152120824e-02 -1.8180840503106857e-03 1.5788362040281112e+00 -7.4625923959777683e-04 -1.8884876965872384e-02 -1.6057311150973574e+00 -3.1485294906870949e+00 3.2126508443710482e+00 -4.6995784861113871e-01  -2.3576516152904289e-02 -1.2217719520013338e-02 1.1069016293944651e+00 -5.9585037800155768e-03 -2.8509367265240185e-02 -1.9752865196793343e+00 -2.2108155379169547e+00 3.9408110996316776e+00 -7.0027206031039446e-01  -2.9322604911584126e-02 -2.0835971739126755e-02 5.5847197662100090e-01 -1.0561887093218755e-02 -3.6493071496139062e-02 -2.2111840621776615e+00 -1.1238593237305856e+00 4.4008694885698754e+00 -8.6385040635731081e-01  -1.2672075196888106e-02 8.6916731337337242e-03 1.1795032439367329e-02 1.3831836617265902e-02 -1.6757423371846179e-03 -2.2533029124780750e+00 -1.7482078702941467e-02 4.4881950662027110e+00 -9.5795951722649664e-01  4.3363120519650300e-02 3.2275453033911744e-02 3.5995288486661552e-02 1.3894330039356589e-02 7.3717032528100426e-02 2.7769469221762044e+00 -6.0949442518386292e-02 -5.6037406686934137e+00 -5.6009319427535054e-01  3.6456735915214936e-02 3.8651228409204201e-02 4.4400838206933957e-01 1.3720229902933275e-02 6.6916960893919353e-02 2.6828283029343329e+00 -8.6780871064505816e-01 -5.4139513471297178e+00 -5.2106585547743067e-01  3.1325198099806245e-02 4.0105581678875665e-02 8.2256002281106799e-01 1.4508996807175951e-02 5.6232021554778029e-02 2.4079402226994846e+00 -1.6311530680308337e+00 -4.8545400833506491e+00 -4.2669786800878740e-01  2.4984855815827520e-02 3.8293391430936324e-02 1.1455626465160422e+00 1.4221482536638217e-02 4.3107405348685894e-02 1.9695354545253381e+00 -2.2824387451767136e+00 -3.9641281924108354e+00 -2.9690848289603283e-01  1.7654531504144928e-02 3.3278808416482154e-02 1.3910765052090930e+00 1.2811986941451909e-02 2.9354131420208186e-02 1.3966989373622716e+00 -2.7771897514166302e+00 -2.8041764636675790e+00 -1.6408700778706126e-01  9.7191979270311278e-03 2.5590384332695511e-02 1.5423709480614263e+00 1.0278253742533083e-02 1.6302321042316090e-02 7.2755803984345413e-01 -3.0818420776150579e+00 -1.4546304287144789e+00 -6.0422393058085423e-02  1.4525711536810826e-03 1.6050883628049389e-02 1.5889717636237859e+00 6.7362583244196337e-03 4.6403757016248836e-03 6.9411912301559197e-03 -3.1760252354159628e+00 -8.1098827861074176e-03 -9.5511109645009546e-03  -6.9424873191613378e-03 5.6407405071021467e-03 1.5274227248437120e+00 2.4269862124447076e-03 -5.5875082278740882e-03 -7.1647002835243268e-01 -3.0538441764286626e+00 1.4365771324218448e+00 -2.0517235857311914e-02  -1.5258866486571709e-02 -4.6578260495344021e-03 1.3615976608185665e+00 -2.2999912818751620e-03 -1.4789818142984870e-02 -1.3933425193087035e+00 -2.7241412892589523e+00 2.7812299525423971e+00 -8.5668334215233552e-02  -2.3205945287794759e-02 -1.4002379195779067e-02 1.1025238001917816e+00 -7.0254877093384053e-03 -2.3508272690577398e-02 -1.9770633731091540e+00 -2.2097555810733507e+00 3.9348804999566296e+00 -1.8303252819998547e-01  -3.0348530759198713e-02 -2.1788725319364328e-02 7.6770598112317268e-01 -1.1319548592307542e-02 -3.2056468897557144e-02 -2.4270514936733552e+00 -1.5458752032362220e+00 4.8198189489691297e+00 -2.8252150720868174e-01  -3.6101248720491683e-02 -2.7269521025379904e-02 3.8020575957901026e-01 -1.4651453632524240e-02 -3.9638532657776192e-02 -2.7121413644430921e+00 -7.7751032318005608e-01 5.3770822074509486e+00 -3.5425762782324205e-01  -1.4945538284342105e-02 1.0735582554616062e-02 1.4029789519630692e-02 1.6584181169413643e-02 -4.9773484532244384e-03 -2.7606339480201063e+00 -1.9254420277530951e-02 5.4950463869247370e+00 -4.3804020751804545e-01  4.3658144062037892e-02 3.2465160785586901e-02 3.6852077654486476e-02 1.3507204471118611e-02 7.5906966518133515e-02 3.0906273266779531e+00 -6.2853570156098729e-02 -6.2391236551803342e+00 -1.8335778431663768e-01  3.5767421824740013e-02 3.3427301930867799e-02 2.4696149394742550e-01 1.0803245341682395e-02 6.6187380038185528e-02 2.9847231163437797e+00 -4.6706579166425799e-01 -6.0224305152705355e+00 -1.7181555797336745e-01  3.0240796725171912e-02 3.0135719993177219e-02 4.4039794890530770e-01 9.6606144384746729e-03 5.2932337983128949e-02 2.6773949135123107e+00 -8.5677535391671311e-01 -5.3951550715630372e+00 -1.4799769002832541e-01  2.3416831471246465e-02 2.4617019915312861e-02 6.0359871089151707e-01 7.8836419225681402e-03 3.7702230834165344e-02 2.1877370182179963e+00 -1.1878577148273393e+00 -4.4003522001572213e+00 -1.1197123823279363e-01  1.5478956043577003e-02 1.7157722142946856e-02 7.2538047213621004e-01 5.4967607579442966e-03 2.2644882157606461e-02 1.5481442455107441e+00 -1.4377551222500946e+00 -3.1066928332794972e+00 -7.0256608885946259e-02  6.8476744864415500e-03 8.3575334743555378e-03 7.9753989000380721e-01 2.5070711307690380e-03 9.1918378106156176e-03 8.0121839449440535e-01 -1.5894759864383401e+00 -1.6032394226028843e+00 -3.0078142056995171e-02  -2.1390374292558330e-03 -1.0412916081502779e-03 8.1530206804673988e-01 -1.0080886101439125e-03 -2.0748631967292168e-03 -2.8348914244781718e-03 -1.6327840857952078e+00 6.9859820255978693e-03 2.3316025686301203e-03  -1.1173726807137092e-02 -1.0245077696053893e-02 7.7761105352719484e-01 -4.8727720759964401e-03 -1.1360536220358720e-02 -8.0943727921517794e-01 -1.5648666418126205e+00 1.6141734163355410e+00 2.3103110915307944e-02  -1.9919559783546419e-02 -1.8504806487216540e-02 6.8715900373566263e-01 -8.8075034157431981e-03 -1.9383466854881556e-02 -1.5632963176069792e+00 -1.3904891856674955e+00 3.1092292950778329e+00 3.1438002756509667e-02  -2.7962780118963793e-02 -2.5201322158639315e-02 5.5016703672329970e-01 -1.2452916993522380e-02 -2.6968354984109343e-02 -2.2122597926435343e+00 -1.1216339201045966e+00 4.3910953226144995e+00 2.9493886174524437e-02  -3.4800242992223167e-02 -2.9903112837479477e-02 3.7594117077162642e-01 -1.5422346537890408e-02 -3.4627043343970342e-02 -2.7110777231038292e+00 -7.7666141993953131e-01 5.3734173745575706e+00 2.1491872868423030e-02  -4.0048895874059284e-02 -3.1949488092340869e-02 1.7655176092648273e-01 -1.7211341335535636e-02 -4.1839530872157665e-02 -3.0251537814236178e+00 -3.7890903566894635e-01 5.9905441351694613e+00 1.2035483749769035e-02  -1.6255321919112813e-02 1.2002682422094143e-02 1.4973602278427874e-02 1.7978830248193724e-02 -7.2034211505760488e-03 -3.0785372903092094e+00 -1.9673866025688855e-02 6.1275994583894313e+00 -6.1825160814665304e-02  4.0122842501007262e-02 3.0214980013213138e-02 3.6301995900666371e-02 1.2557708229167758e-02 6.9928961555287841e-02 3.1977839944804116e+00 -5.9370023458455677e-02 -6.4448278466808242e+00 -5.1544453864484370e-02  3.3134835013394058e-02 2.6019866885336741e-02 3.4116123238889150e-02 7.7945531580653109e-03 5.8458684096632588e-02 3.0870135505152789e+00 -3.4789883204023341e-02 -6.2166060948861714e+00 -5.0705201667083130e-02  2.7650141891077385e-02 1.8340833901914103e-02 2.8895796088464536e-02 4.6688625767900742e-03 4.3947079526135059e-02 2.7673278445053140e+00 -2.4303181518270225e-02 -5.5650586568506446e+00 -5.1841592084117004e-02  2.0707351535932682e-02 9.5350767029888581e-03 2.0655513427718437e-02 1.3506045533313493e-03 2.8286806537200022e-02 2.2587075636393616e+00 -1.2660389369518290e-02 -4.5346676603069129e+00 -4.7350865620749596e-02  1.2625634666857895e-02 1.0017991734432330e-04 9.8614053058831246e-03 -2.0248353595960890e-03 1.3702251230382045e-02 1.5949260441023358e+00 -7.3495934110815375e-04 -3.1963817252711544e+00 -3.4752448087844529e-02  3.8500813183207847e-03 -9.3227417880416327e-03 -2.4647417682380161e-03 -5.3945068140122147e-03 1.4196554854997467e-03 8.2042679740607838e-01 1.0749052624062450e-02 -1.6420634585099088e+00 -1.3195952863905498e-02  -5.2360345383311736e-03 -1.8092707154782752e-02 -1.4957404106840058e-02 -8.6904225236090239e-03 -8.3063876044260094e-03 -1.2445393574262475e-02 2.1212917935766809e-02 2.2040756014461815e-02 1.6154423486269318e-02  -1.4247786808640974e-02 -2.5615796166939639e-02 -2.6144270480882709e-02 -1.1800944569724303e-02 -1.6021201819967034e-02 -8.4688837235773351e-01 3.0209654194864249e-02 1.6826270520346602e+00 5.0145302530737026e-02  -2.2755808426366948e-02 -3.1385830365204884e-02 -3.4717487283600142e-02 -1.4548249746869062e-02 -2.2703163512941188e-02 -1.6255215638145850e+00 3.7383181582496372e-02 3.2270290008009139e+00 8.4163003019361332e-02  -3.0269499638464880e-02 -3.5018113646855885e-02 -3.9772446472882556e-02 -1.6691520215833450e-02 -2.9298288630198035e-02 -2.2944322287745496e+00 4.2424231730740308e-02 4.5507621240391867e+00 1.1305980346582853e-01  -3.6266584988405251e-02 -3.6269251762918481e-02 -4.0954807880201033e-02 -1.7960725531986514e-02 -3.6296550142694971e-02 -2.8070695846808582e+00 4.5040807090686086e-02 5.5644398394304648e+00 1.3223406070687757e-01  -4.0487164271656252e-02 -3.4651383382952941e-02 -3.8142408402782498e-02 -1.7972168550137491e-02 -4.3057067929739241e-02 -3.1280328236060533e+00 4.5124227405510926e-02 6.1999328906777844e+00 1.3818757307510360e-01  -1.6349611019917182e-02 1.2341642441101941e-02 1.4485215447983941e-02 1.7876394895487327e-02 -7.8009344507004828e-03 -3.1850260445931684e+00 -1.8659051852177262e-02 6.3426706606173733e+00 7.0368885572141451e-02  3.3284961134699254e-02 2.5818894410605690e-02 3.4203274323099733e-02 1.1126927652508870e-02 5.6862872190346934e-02 3.0906891335248128e+00 -5.0882841795070702e-02 -6.2076050036811026e+00 -1.9927515186988110e-01  2.8722073910132602e-02 1.7209284449965764e-02 -1.8060712455729874e-01 4.9272746707926859e-03 4.4863764985412308e-02 2.9821219098026366e+00 3.9918279804682039e-01 -5.9841016967835907e+00 -1.8899096014530900e-01  2.3554816981001717e-02 5.8779795360497673e-03 -3.8472408549850329e-01 -6.2663842460512003e-05 3.0403108966182604e-02 2.6709312297892223e+00 8.0887284443647278e-0