<?xml version="1.0"?>
<VTKFile type="UnstructuredGrid"  version="0.1"  >
<UnstructuredGrid>
<Piece  NumberOfPoints="2197" NumberOfCells="10368">
<Points>
<DataArray  type="Float64"  NumberOfComponents="3"  format="ascii">0 0 0  0.08333333333333333 0 0  0.1666666666666667 0 0  0.25 0 0  0.3333333333333333 0 0  0.4166666666666667 0 0  0.5 0 0  0.5833333333333334 0 0  0.6666666666666666 0 0  0.75 0 0  0.8333333333333334 0 0  0.9166666666666666 0 0  1 0 0  0 0.08333333333333333 0  0.08333333333333333 0.08333333333333333 0  0.1666666666666667 0.08333333333333333 0  0.25 0.08333333333333333 0  0.3333333333333333 0.08333333333333333 0  0.4166666666666667 0.08333333333333333 0  0.5 0.08333333333333333 0  0.5833333333333334 0.08333333333333333 0  0.6666666666666666 0.08333333333333333 0  0.75 0.08333333333333333 0  0.8333333333333334 0.08333333333333333 0  0.9166666666666666 0.08333333333333333 0  1 0.08333333333333333 0  0 0.1666666666666667 0  0.08333333333333333 0.1666666666666667 0  0.1666666666666667 0.1666666666666667 0  0.25 0.1666666666666667 0  0.3333333333333333 0.1666666666666667 0  0.4166666666666667 0.1666666666666667 0  0.5 0.1666666666666667 0  0.5833333333333334 0.1666666666666667 0  0.6666666666666666 0.1666666666666667 0  0.75 0.1666666666666667 0  0.8333333333333334 0.1666666666666667 0  0.9166666666666666 0.1666666666666667 0  1 0.1666666666666667 0  0 0.25 0  0.08333333333333333 0.25 0  0.1666666666666667 0.25 0  0.25 0.25 0  0.3333333333333333 0.25 0  0.4166666666666667 0.25 0  0.5 0.25 0  0.5833333333333334 0.25 0  0.6666666666666666 0.25 0  0.75 0.25 0  0.8333333333333334 0.25 0  0.9166666666666666 0.25 0  1 0.25 0  0 0.3333333333333333 0  0.08333333333333333 0.3333333333333333 0  0.1666666666666667 0.3333333333333333 0  0.25 0.3333333333333333 0  0.3333333333333333 0.3333333333333333 0  0.4166666666666667 0.3333333333333333 0  0.5 0.3333333333333333 0  0.5833333333333334 0.3333333333333333 0  0.6666666666666666 0.3333333333333333 0  0.75 0.3333333333333333 0  0.8333333333333334 0.3333333333333333 0  0.9166666666666666 0.3333333333333333 0  1 0.3333333333333333 0  0 0.4166666666666667 0  0.08333333333333333 0.4166666666666667 0  0.1666666666666667 0.4166666666666667 0  0.25 0.4166666666666667 0  0.3333333333333333 0.4166666666666667 0  0.4166666666666667 0.4166666666666667 0  0.5 0.4166666666666667 0  0.5833333333333334 0.4166666666666667 0  0.6666666666666666 0.4166666666666667 0  0.75 0.4166666666666667 0  0.8333333333333334 0.4166666666666667 0  0.9166666666666666 0.4166666666666667 0  1 0.4166666666666667 0  0 0.5 0  0.08333333333333333 0.5 0  0.1666666666666667 0.5 0  0.25 0.5 0  0.3333333333333333 0.5 0  0.4166666666666667 0.5 0  0.5 0.5 0  0.5833333333333334 0.5 0  0.6666666666666666 0.5 0  0.75 0.5 0  0.8333333333333334 0.5 0  0.9166666666666666 0.5 0  1 0.5 0  0 0.5833333333333334 0  0.08333333333333333 0.5833333333333334 0  0.1666666666666667 0.5833333333333334 0  0.25 0.5833333333333334 0  0.3333333333333333 0.5833333333333334 0  0.4166666666666667 0.5833333333333334 0  0.5 0.5833333333333334 0  0.5833333333333334 0.5833333333333334 0  0.6666666666666666 0.5833333333333334 0  0.75 0.5833333333333334 0  0.8333333333333334 0.5833333333333334 0  0.9166666666666666 0.5833333333333334 0  1 0.5833333333333334 0  0 0.6666666666666666 0  0.08333333333333333 0.6666666666666666 0  0.1666666666666667 0.6666666666666666 0  0.25 0.6666666666666666 0  0.3333333333333333 0.6666666666666666 0  0.4166666666666667 0.6666666666666666 0  0.5 0.6666666666666666 0  0.5833333333333334 0.6666666666666666 0  0.6666666666666666 0.6666666666666666 0  0.75 0.6666666666666666 0  0.8333333333333334 0.6666666666666666 0  0.9166666666666666 0.6666666666666666 0  1 0.6666666666666666 0  0 0.75 0  0.08333333333333333 0.75 0  0.1666666666666667 0.75 0  0.25 0.75 0  0.3333333333333333 0.75 0  0.4166666666666667 0.75 0  0.5 0.75 0  0.5833333333333334 0.75 0  0.6666666666666666 0.75 0  0.75 0.75 0  0.8333333333333334 0.75 0  0.9166666666666666 0.75 0  1 0.75 0  0 0.8333333333333334 0  0.08333333333333333 0.8333333333333334 0  0.1666666666666667 0.8333333333333334 0  0.25 0.8333333333333334 0  0.3333333333333333 0.8333333333333334 0  0.4166666666666667 0.8333333333333334 0  0.5 0.8333333333333334 0  0.5833333333333334 0.8333333333333334 0  0.6666666666666666 0.8333333333333334 0  0.75 0.8333333333333334 0  0.8333333333333334 0.8333333333333334 0  0.9166666666666666 0.8333333333333334 0  1 0.8333333333333334 0  0 0.9166666666666666 0  0.08333333333333333 0.9166666666666666 0  0.1666666666666667 0.9166666666666666 0  0.25 0.9166666666666666 0  0.3333333333333333 0.9166666666666666 0  0.4166666666666667 0.9166666666666666 0  0.5 0.9166666666666666 0  0.5833333333333334 0.9166666666666666 0  0.6666666666666666 0.9166666666666666 0  0.75 0.9166666666666666 0  0.8333333333333334 0.9166666666666666 0  0.9166666666666666 0.9166666666666666 0  1 0.9166666666666666 0  0 1 0  0.08333333333333333 1 0  0.1666666666666667 1 0  0.25 1 0  0.3333333333333333 1 0  0.4166666666666667 1 0  0.5 1 0  0.5833333333333334 1 0  0.6666666666666666 1 0  0.75 1 0  0.8333333333333334 1 0  0.9166666666666666 1 0  1 1 0  0 0 0.08333333333333333  0.08333333333333333 0 0.08333333333333333  0.1666666666666667 0 0.08333333333333333  0.25 0 0.08333333333333333  0.3333333333333333 0 0.08333333333333333  0.4166666666666667 0 0.08333333333333333  0.5 0 0.08333333333333333  0.5833333333333334 0 0.08333333333333333  0.6666666666666666 0 0.08333333333333333  0.75 0 0.08333333333333333  0.8333333333333334 0 0.08333333333333333  0.9166666666666666 0 0.08333333333333333  1 0 0.08333333333333333  0 0.08333333333333333 0.08333333333333333  0.08333333333333333 0.08333333333333333 0.08333333333333333  0.1666666666666667 0.08333333333333333 0.08333333333333333  0.25 0.08333333333333333 0.08333333333333333  0.3333333333333333 0.08333333333333333 0.08333333333333333  0.4166666666666667 0.08333333333333333 0.08333333333333333  0.5 0.08333333333333333 0.08333333333333333  0.5833333333333334 0.08333333333333333 0.08333333333333333  0.6666666666666666 0.08333333333333333 0.08333333333333333  0.75 0.08333333333333333 0.08333333333333333  0.8333333333333334 0.08333333333333333 0.08333333333333333  0.9166666666666666 0.08333333333333333 0.08333333333333333  1 0.08333333333333333 0.08333333333333333  0 0.1666666666666667 0.08333333333333333  0.08333333333333333 0.1666666666666667 0.08333333333333333  0.1666666666666667 0.1666666666666667 0.08333333333333333  0.25 0.1666666666666667 0.08333333333333333  0.3333333333333333 0.1666666666666667 0.08333333333333333  0.4166666666666667 0.1666666666666667 0.08333333333333333  0.5 0.1666666666666667 0.08333333333333333  0.5833333333333334 0.1666666666666667 0.08333333333333333  0.6666666666666666 0.1666666666666667 0.08333333333333333  0.75 0.1666666666666667 0.08333333333333333  0.8333333333333334 0.1666666666666667 0.08333333333333333  0.9166666666666666 0.1666666666666667 0.08333333333333333  1 0.1666666666666667 0.08333333333333333  0 0.25 0.08333333333333333  0.08333333333333333 0.25 0.08333333333333333  0.1666666666666667 0.25 0.08333333333333333  0.25 0.25 0.08333333333333333  0.3333333333333333 0.25 0.08333333333333333  0.4166666666666667 0.25 0.08333333333333333  0.5 0.25 0.08333333333333333  0.5833333333333334 0.25 0.08333333333333333  0.6666666666666666 0.25 0.08333333333333333  0.75 0.25 0.08333333333333333  0.8333333333333334 0.25 0.08333333333333333  0.9166666666666666 0.25 0.08333333333333333  1 0.25 0.08333333333333333  0 0.3333333333333333 0.08333333333333333  0.08333333333333333 0.3333333333333333 0.08333333333333333  0.1666666666666667 0.3333333333333333 0.08333333333333333  0.25 0.3333333333333333 0.08333333333333333  0.3333333333333333 0.3333333333333333 0.08333333333333333  0.4166666666666667 0.3333333333333333 0.08333333333333333  0.5 0.3333333333333333 0.08333333333333333  0.5833333333333334 0.3333333333333333 0.08333333333333333  0.6666666666666666 0.3333333333333333 0.08333333333333333  0.75 0.3333333333333333 0.08333333333333333  0.8333333333333334 0.3333333333333333 0.08333333333333333  0.9166666666666666 0.3333333333333333 0.08333333333333333  1 0.3333333333333333 0.08333333333333333  0 0.4166666666666667 0.08333333333333333  0.08333333333333333 0.4166666666666667 0.08333333333333333  0.1666666666666667 0.4166666666666667 0.08333333333333333  0.25 0.4166666666666667 0.08333333333333333  0.3333333333333333 0.4166666666666667 0.08333333333333333  0.4166666666666667 0.4166666666666667 0.08333333333333333  0.5 0.4166666666666667 0.08333333333333333  0.5833333333333334 0.4166666666666667 0.08333333333333333  0.6666666666666666 0.4166666666666667 0.08333333333333333  0.75 0.4166666666666667 0.08333333333333333  0.8333333333333334 0.4166666666666667 0.08333333333333333  0.9166666666666666 0.4166666666666667 0.08333333333333333  1 0.4166666666666667 0.08333333333333333  0 0.5 0.08333333333333333  0.08333333333333333 0.5 0.08333333333333333  0.1666666666666667 0.5 0.08333333333333333  0.25 0.5 0.08333333333333333  0.3333333333333333 0.5 0.08333333333333333  0.4166666666666667 0.5 0.08333333333333333  0.5 0.5 0.08333333333333333  0.5833333333333334 0.5 0.08333333333333333  0.6666666666666666 0.5 0.08333333333333333  0.75 0.5 0.08333333333333333  0.8333333333333334 0.5 0.08333333333333333  0.9166666666666666 0.5 0.08333333333333333  1 0.5 0.08333333333333333  0 0.5833333333333334 0.08333333333333333  0.08333333333333333 0.5833333333333334 0.08333333333333333  0.1666666666666667 0.5833333333333334 0.08333333333333333  0.25 0.5833333333333334 0.08333333333333333  0.3333333333333333 0.5833333333333334 0.08333333333333333  0.4166666666666667 0.5833333333333334 0.08333333333333333  0.5 0.5833333333333334 0.08333333333333333  0.5833333333333334 0.5833333333333334 0.08333333333333333  0.6666666666666666 0.5833333333333334 0.08333333333333333  0.75 0.5833333333333334 0.08333333333333333  0.8333333333333334 0.5833333333333334 0.083
[...]
<PointData  Vectors="f_1278-0-0"> 
<DataArray  type="Float64"  Name="f_1278-0-0"  NumberOfComponents="3" format="ascii">-6.2636539982623167e-03 -1.7386522315862872e-02 2.0439697735852063e+00  -4.7774919878405091e-03 -1.6131953262935698e-02 1.9727330989572114e+00  -2.9607093512144288e-03 -1.3778444508508968e-02 1.7670048128529110e+00  -9.3183920305344500e-04 -1.0482613232084206e-02 1.4408574165716084e+00  1.1598619394770446e-03 -6.4687056987131055e-03 1.0165223573290860e+00  3.1702394417611438e-03 -2.0078091471381148e-03 5.2292345993930711e-01  4.9622265772478287e-03 2.5973048233722284e-03 -6.2975484349937494e-03  6.4143441821277259e-03 7.0323379635747509e-03 -5.3507461129136025e-01  7.4286958060262058e-03 1.0993029449749690e-02 -1.0273752482648779e+00  7.9373553321111373e-03 1.4206485065021994e-02 -1.4496551868590823e+00  7.9079267122170189e-03 1.6450339811313802e-02 -1.7731431433896772e+00  7.3526449396846315e-03 1.7567799602860718e-02 -1.9758094827756651e+00  -4.4784148999391597e-03 6.6764986085482408e-03 -2.0224256993100491e+00  -5.3845013997821231e-03 -1.5528287023776672e-02 1.9715321129054901e+00  -2.8070381332160822e-03 -1.3950446854655164e-02 1.9016299451002416e+00  -2.4481588374032362e-05 -1.1410343972043302e-02 1.7021271576594346e+00  2.7673034465647887e-03 -8.0866006459841683e-03 1.3866321445430527e+00  5.3692056858938367e-03 -4.2078446723260304e-03 9.7664757273031455e-01  7.6020651162175502e-03 -3.8426536418306890e-05 5.0011630394376017e-01  9.3136220620487070e-03 4.1371158394355187e-03 -1.0486049643555345e-02  1.0388132535549370e-02 8.0330028030721392e-03 -5.2036460959349951e-01  1.0753917093367600e-02 1.1381905402095951e-02 -9.9477592081104338e-01  1.0387978312301571e-02 1.3953570303401462e-02 -1.4013945116992472e+00  9.3183657566318721e-03 1.5570603374958204e-02 -1.7125150679314656e+00  7.6287521479548983e-03 1.6122095870112974e-02 -1.9069495822281641e+00  -4.1783083325573006e-03 5.9381594044618470e-03 -1.9527171729347210e+00  -4.1436578401381798e-03 -1.2596969619294058e-02 1.7647235457755441e+00  -6.4124368268297992e-04 -1.0789864782926503e-02 1.7009329098149863e+00  2.9159424402512269e-03 -8.2355726493341004e-03 1.5212586167428956e+00  6.2771344234809241e-03 -5.1171684937295408e-03 1.2379185534885806e+00  9.2083688031996940e-03 -1.6471466356457820e-03 8.7022250449995986e-01  1.1509208829717850e-02 1.9380571791103841e-03 4.4322876043787945e-01  1.3023108151718404e-02 5.3936344450130130e-03 -1.3964997177624887e-02  1.3647815654977018e-02 8.4829852115679612e-03 -4.7020441500881471e-01  1.3342122227594563e-02 1.0994047782537859e-02 -8.9440086137671493e-01  1.2128413854540556e-02 1.2754098633751721e-02 -1.2576491211698733e+00  1.0091749045696046e-02 1.3641738863052972e-02 -1.5351969847901152e+00  7.3797750433713264e-03 1.3597596765174044e-02 -1.7081378725524679e+00  -3.6104495345802199e-03 4.8234343829076697e-03 -1.7499692961433746e+00  -2.6202773638768330e-03 -8.8024280839792465e-03 1.4376526682180495e+00  1.5710444303420233e-03 -6.8860192510666650e-03 1.3843306124344570e+00  5.6576762326073079e-03 -4.4954453914843873e-03 1.2367311261294576e+00  9.3582983612366163e-03 -1.7973517325933417e-03 1.0048539405478139e+00  1.2419088799160627e-02 1.0253422399273220e-03 7.0450044231307751e-01  1.4631376142911426e-02 3.7807253873534670e-03 3.5613768875667268e-01  1.5844799551545746e-02 6.2807907971867746e-03 -1.6496073150007898e-02  1.5977421930314040e-02 8.3542735785842002e-03 -3.8800863838723881e-01  1.5021176848453447e-02 9.8585416048656577e-03 -7.3308369715680299e-01  1.3042250460371236e-02 1.0689649781237704e-02 -1.0282056345406421e+00  1.0177040165485148e-02 1.0789596423117210e-02 -1.2532623455689043e+00  6.6266297467312378e-03 1.0153285625928574e-02 -1.3929178942075988e+00  -2.7970194087720032e-03 3.3822926782354603e-03 -1.4279644209272859e+00  -9.1618289619380111e-04 -4.4046007109961940e-03 1.0126137161739752e+00  3.6771466799634658e-03 -2.5113015035538428e-03 9.7340349823498074e-01  8.0132957107448364e-03 -4.4854268407479146e-04 8.6793723256703592e-01  1.1800929081441439e-02 1.6446428304540076e-03 7.0332198486719111e-01  1.4782984010193838e-02 3.6272925803727315e-03 4.9077448056838757e-01  1.6756411261169106e-02 5.3650147855180330e-03 2.4477714269645953e-01  1.7587044205425225e-02 6.7394260787866896e-03 -1.7907343956446217e-02  1.7218704692431475e-02 7.6562361472691937e-03 -2.7937799404680252e-01  1.5676966881528157e-02 8.0518612228280325e-03 -5.2181530531004383e-01  1.3067334549318075e-02 7.8980422865880719e-03 -7.2869580461901107e-01  9.5683001575127200e-03 7.2039009949086156e-03 -8.8591881158987518e-01  5.4209449854156983e-03 6.0192587104499744e-03 -9.8276617793219867e-01  -1.7932788122091128e-03 1.7102040023780803e-03 -1.0086458008222523e+00  8.5441443069383895e-04 2.9774952036049139e-04 5.1857634451823498e-01  5.5333672341374499e-03 2.0350571848042468e-03 4.9615863532593840e-01  9.8223256650745369e-03 3.6286264655215491e-03 4.4001019758857618e-01  1.3439260634342800e-02 4.9737649562560261e-03 3.5387028037357776e-01  1.6139961111024514e-02 5.9810346296441967e-03 2.4360745649981447e-01  1.7740494246391153e-02 6.5827127166212173e-03 1.1673419822976758e-01  1.8131854771828229e-02 6.7380832266406903e-03 -1.8103205937361106e-02  1.7287402430516907e-02 6.4361996419841170e-03 -1.5171392292567507e-01  1.5264675030818834e-02 5.6967582909692961e-03 -2.7498941615960448e-01  1.2201448095650123e-02 4.5689818621488416e-03 -3.7952500032545999e-01  8.3064134717681891e-03 3.1284188428949509e-03 -4.5819360870138631e-01  3.8453900167188318e-03 1.4765765410003201e-03 -5.0562825415495394e-01  -6.6691150357949371e-04 -8.0544785862459546e-05 -5.2058695425775725e-01  2.5719903288942267e-03 4.9844472845284801e-03 -1.0790182533937402e-02  7.0133440165168611e-03 6.4428571523749006e-03 -1.4881523397058500e-02  1.0961920960509042e-02 7.4576813139900387e-03 -1.7890335372101624e-02  1.4162428743162281e-02 7.9626105859290745e-03 -1.9690287960596714e-02  1.6398428943785039e-02 7.9256748037901531e-03 -2.0159880623928369e-02  1.7517295485958814e-02 7.3504490274136731e-03 -1.9267040933979660e-02  1.7442511117531794e-02 6.2766168938075042e-03 -1.7069989987896928e-02  1.6178842576036977e-02 4.7772147494472804e-03 -1.3713967050373145e-02  1.3812047842949241e-02 2.9537236060614329e-03 -9.4225124471181247e-03  1.0503042770564427e-02 9.2933859727149988e-04 -4.4835536635911269e-03  6.4769498497158490e-03 -1.1591957706571694e-03 7.6915540291306347e-04  2.0078720132820724e-03 -3.1657102910991794e-03 5.9824190365228179e-03  5.0593707374182800e-04 -1.8691238737501650e-03 2.9532149629049741e-03  4.1195056405759446e-03 9.3353447312113525e-03 -5.3941186847213241e-01  8.0162497075525491e-03 1.0411481692689293e-02 -5.2489530566852882e-01  1.1354921445612013e-02 1.0777288700478898e-02 -4.7456477022441390e-01  1.3921766392998119e-02 1.0407053470554921e-02 -3.9190721451428762e-01  1.5541292909567822e-02 9.3282721935553630e-03 -2.8255563011225276e-01  1.6102313494642386e-02 7.6155928429868566e-03 -1.5395946618551595e-01  1.5565992023363921e-02 5.3863195979230501e-03 -1.4876975382735989e-02  1.3968315808944153e-02 2.7923279623494686e-03 1.2522024162739659e-01  1.1417671494557994e-02 9.7578039114666790e-06 2.5679097248076260e-01  8.0874672308101254e-03 -2.7728050793717715e-03 3.7087305569938406e-01  4.2044320034776844e-03 -5.3668458832483307e-03 4.5969323950060481e-01  3.4042211387778433e-05 -7.5917885160901016e-03 5.1719931447336154e-01  1.6456766083527146e-03 -3.5340509568390719e-03 5.2629667258283386e-01  5.3903860381131520e-03 1.3052213814092934e-02 -1.0312678911039783e+00  8.4736073822103842e-03 1.3670246095905897e-02 -9.9913341344171924e-01  1.0974892360663221e-02 1.3361013539629240e-02 -8.9889811522498997e-01  1.2733912937338981e-02 1.2140274315179089e-02 -7.3741944307338125e-01  1.3626980198162435e-02 1.0093032311467543e-02 -5.2570049874030400e-01  1.3591759285234152e-02 7.3599482736892768e-03 -2.7816416020143586e-01  1.2629793775983233e-02 4.1278369690491796e-03 -1.1671980667465227e-02  1.0806029305580200e-02 6.1684723255794112e-04 2.5562289177614467e-01  8.2443717074218541e-03 -2.9344719656899374e-03 5.0551077871927641e-01  5.1192205858063607e-03 -6.2851863721141354e-03 7.2096494845063253e-01  1.6439128134920994e-03 -9.2079524807751455e-03 8.8730137025660016e-01  -1.9413387564881320e-03 -1.1500445485092175e-02 9.9317925009212549e-01  2.6746054670264167e-03 -4.9613679809956315e-03 1.0137775883493347e+00  6.2962696626731015e-03 1.5879282369875746e-02 -1.4528439557893471e+00  8.3540650524690230e-03 1.5996968156070903e-02 -1.4052844503319952e+00  9.8477362409179620e-03 1.5032897912237398e-02 -1.2619780380501937e+00  1.0679565204508721e-02 1.3044273639150590e-02 -1.0326838833432896e+00  1.0785429870110630e-02 1.0167994829621111e-02 -7.3302524101562128e-01  1.0156029044584552e-02 6.6011231992285056e-03 -3.8341571802200891e-01  8.8333143381163735e-03 2.5871035360044625e-03 -7.6716779304245673e-03  6.9069693386540820e-03 -1.6008585772549246e-03 3.6860844276729249e-01  4.5082104652567467e-03 -5.6782988312544976e-03 7.1978658423459974e-01  1.8008101358605024e-03 -9.3685375485742326e-03 1.0219311334035255e+00  -1.0294797853478994e-03 -1.2420901931135467e-02 1.2544476169002474e+00  -3.7834133676771069e-03 -1.4625337964985330e-02 1.4014784089828500e+00  3.5222128166165208e-03 -6.0525644083818915e-03 1.4321731998019072e+00  6.7751447269514195e-03 1.7623749701245525e-02 -1.7754152088928425e+00  7.6659843216479511e-03 1.7239275471800198e-02 -1.7156756358355523e+00  8.0505639698099478e-03 1.5685348287884999e-02 -1.5390651423835400e+00  7.8987250458465354e-03 1.3063284543273780e-02 -1.2575804445093544e+00  7.2098102270213302e-03 9.5527631414888646e-03 -8.9040071950443511e-01  6.0285467593302880e-03 5.3940005101183542e-03 -4.6253999728637335e-01  4.4347169206861263e-03 8.7082397522421958e-04 -3.1473334185278287e-03  2.5367982529633033e-03 -3.7088874358710837e-03 4.5647718857892405e-01  4.6446049497305487e-04 -8.0340964540619245e-03 8.8501373039998643e-01  -1.6402702044774889e-03 -1.1811440711797391e-02 1.2532564926034411e+00  -3.6316673162753435e-03 -1.4784433407353558e-02 1.5361043525157074e+00  -5.3645617278043805e-03 -1.6749958905759775e-02 1.7142649540810069e+00  4.1302145782390600e-03 -6.7312398021310066e-03 1.7529686759389216e+00  6.7988049667142949e-03 1.8187822479210271e-02 -1.9770579999919307e+00  6.4623448640443058e-03 1.7369524383323790e-02 -1.9092760055861437e+00  5.7077815514453298e-03 1.5339624028301652e-02 -1.7114114808105922e+00  4.5731031320631107e-03 1.2262828285798137e-02 -1.3969097411000058e+00  3.1271563556423540e-03 8.3491968715366221e-03 -9.8720667530798945e-01  1.4684007790064784e-03 3.8689660373524520e-03 -5.1021993320482462e-01  -2.8941575146632423e-04 -8.6914968464248728e-04 1.5461432008295911e-03  -2.0259965116169510e-03 -5.5400128403861309e-03 5.1321477199179300e-01  -3.6227788975439655e-03 -9.8247672518700490e-03 9.8991366805707259e-01  -4.9705807360836234e-03 -1.3432613480877582e-02 1.3991521846005321e+00  -5.9753897675068144e-03 -1.6120400092290352e-02 1.7130352494250034e+00  -6.5607399104216195e-03 -1.7712281113936017e-02 1.9101605852849544e+00  4.4575554654085869e-03 -6.9445590113788236e-03 1.9543020304587519e+00  6.6818967124838468e-03 -4.4775791882995363e-03 -2.0224215350393790e+00  5.9336250456603094e-03 -4.1677064174485533e-03 -1.9527077827888852e+00  4.8111654597724337e-03 -3.5915220010439924e-03 -1.7499628022735130e+00  3.3652921485124400e-03 -2.7738642010198609e-03 -1.4279624394094323e+00  1.6922583253589521e-03 -1.7710524304636605e-03 -1.0086490315339185e+00  -9.5432555118598892e-05 -6.5041725595536587e-04 -5.2059464560891244e-01  -1.8778121944014086e-03 5.1354338786461303e-04 2.9430165619727233e-03  -3.5351296211962886e-03 1.6437385245596887e-03 5.2628658391318761e-01  -4.9555683511417490e-03 2.6651494240047553e-03 1.0137701867424356e+00  -6.0425939236998724e-03 3.5094164088730600e-03 1.4321703552294991e+00  -6.7210835022256214e-03 4.1192838986881166e-03 1.7529711531831318e+00  -6.9371548716613577e-03 4.4532601402233699e-03 1.9543081245090950e+00  4.4748663202250792e-03 2.2059909986303062e-03 2.0224275891926080e+00  -5.2506114971510622e-03 -1.5395632637144508e-02 1.9717111011406199e+00  6.4648151181427888e-02 -1.3675221722465200e-02 1.9021456624578599e+00  1.3010479668116215e-01 -1.1002053524803285e-02 1.7029207806225419e+00  1.8670154102462100e-01 -7.5742625819150483e-03 1.3876499588078752e+00  2.3057768856514982e-01 -3.6271497430127534e-03 9.7781507316782379e-01  2.5874418472705152e-01 5.7106674804599511e-04 5.0134675474151225e-01  2.6928282397057735e-01 4.7341230774422555e-03 -9.2831348889564746e-03  2.6147564776904253e-01 8.5770934657434759e-03 -5.1927558690966669e-01  2.3585371409649358e-01 1.1836160631973630e-02 -9.9387614928475665e-01  1.9416151678548668e-01 1.4287128393979446e-02 -1.4007433704998697e+00  1.3923977870201792e-01 1.5760845986616916e-02 -1.7121538157209912e+00  7.4831767476921426e-02 1.6150396394636283e-02 -1.9068926218463236e+00  -4.1054922474337441e-03 6.0634668761345425e-03 -1.9525415939568003e+00  -3.8619617328567628e-03 5.4819111899782599e-02 1.8995029867521771e+00  6.4658818339216065e-02 5.4477577617456065e-02 1.8314224960855521e+00  1.2873428245658669e-01 5.0417392817874655e-02 1.6385393614237642e+00  1.8403592836894639e-01 4.2929029999289714e-02 1.3340049529810258e+00  2.2679821166140157e-01 3.2521954263962281e-02 9.3856633432480085e-01  2.5410815833493072e-01 1.9904064772756525e-02 4.7916949616849946e-01  2.6410631522640327e-01 5.9339163046591148e-03 -1.2879689784862626e-02  2.5611208950585013e-01 -8.4385826793433680e-03 -5.0405032787436310e-01  2.3066977870710195e-01 -2.2236705806191553e-02 -9.6087166912488053e-01  1.8951210873182697e-01 -3.4523059016894363e-02 -1.3522141632490770e+00  1.3544266341652084e-01 -4.4463561322963079e-02 -1.6514122926586172e+00  7.2136793568626498e-02 -5.1381235657480546e-02 -1.8380770844866361e+00  -3.7021670204788783e-03 -6.2340062644122028e-02 -1.8843137691665064e+00  -2.2085510891650816e-03 1.2130853202543483e-01 1.6978422567113201e+00  6.0249629784877912e-02 1.1891145526421809e-01 1.6358922170505779e+00  1.1857526592307210e-01 1.0840502753285976e-01 1.4625112736181767e+00  1.6881789032620956e-01 9.0515173831302823e-02 1.1894730277334824e+00  2.0755624328483252e-01 6.6462354589742506e-02 8.3537743474679338e-01  2.3215240112015695e-01 3.7884805116193875e-02 4.2435241431123955e-01  2.4093170131230834e-01 6.7286629139748930e-03 -1.5593227495411931e-02  2.3329631893549707e-01 -2.4884846923986226e-02 -4.5447926815255441e-01  2.0976596925263233e-01 -5.4803797092533503e-02 -8.6239718640944418e-01  1.7194292969942249e-01 -8.0991818151824324e-02 -1.2115485642060915e+00  1.2240280258565923e-01 -1.0166636886876422e-01 -1.4781405653081081e+00  6.4513199110594305e-02 -1.1541464201752961e-01 -1.6439997111677322e+00  -3.0319880350271463e-03 -1.2650500231520453e-01 -1.6877381440053090e+00  -4.0238972638996420e-04 1.7953526634106820e-01 1.3804778699005726e+00  5.1744640230876833e-02 1.7524649029346992e-01 1.3288975798483853e+00  1.0034313133604859e-01 1.5900645759497176e-01 1.1868324649690325e+00  1.4210095318193811e-01 1.3193357274860695e-01 9.6389208726030151e-01  1.7417393008701107e-01 9.5873133996735138e-02 6.7526381240096367e-01  1.9437807566209003e-01 5.3282386970605430e-02 3.4061493482068878e-01  2.0133780046647198e-01 7.0629774608511530e-03 -1.7249917944098588e-02  1.9457923542328195e-01 -3.9636865790619827e-02 -3.7394321838384659e-01  1.7456255933486708e-01 -8.3636623190954593e-02 -7.0515660068272024e-01  1.4265091287469320e-01 -1.2193981978749750e-01 -9.8831773870313266e-01  1.0101748501516186e-01 -1.5193769479950955e-01 -1.2041294039028756e+00  5.2493561138439671e-02 -1.7158074539224757e-01 -1.3378766751521511e+00  -2.1525912620994833e-03 -1.8205140416715279e-01 -1.3761472045961438e+00  1.4354166048328168e-03 2.2553138593786495e-01 9.6903692911481876e-01  3.9722180326192215e-02 2.1964131645582891e-01 9.3135409086452559e-01  7.5280766070311839e-02 1.9877260140786304e-01 8.3028347214748621e-01  1.0570535120517371e-01 1.6436016936648667e-01 6.7262966842051575e-01  1.2892436820084999e-01 1.1874884958378021e-01 4.6913378104443282e-01  1.4335685738879483e-01 6.5047202604101212e-02 2.3366306697079206e-01  1.4802039931372077e-01 6.9146046240312984e-03 -1.7735255175372860e-02  1.4259784417118931e-01 -5.1688319369078618e-02 -2.6792780693010027e-01  1.2745885134923624e-01 -1.0676935783900804e-01 -4.9986297884815534e-01  1.0363472825373543e-01 -1.5457640559054026e-01 -6.9773341949683576e-01  7.2748085186247965e-02 -1.9185272627873640e-01 -8.4805389083115190e-01  3.6899850366750163e-02 -2.1605256084580393e-01 -9.4057342560789536e-01  -1.1273010569822677e-03 -2.2519156938115098e-01 -9.7077468665175515e-01  3.1812283796483175e-03 2.5616310208608351e-01 4.9155890896895937e-01  2.5000821406691492e-02 2.4906918049804053e-01 4.7035056443032092e-01  4.5094617219908879e-02 2.2499293663438011e-01 4.1715863691620808e-01  6.2109886810007807e-02 1.8558491082818376e-01 3.3553173259721814e-01  7.4889684090855821e-02 1.3353036803431936e-01 2.3103308073165291e-01  8.2564342212134462e-02 7.2377368964117422e-02 1.1078528491261026e-01  8.4612083988173728e-02 6.2935388668286744e-03 -1.7014994132578187e-02  8.0894524844500867e-02 -6.0218145443097636e-02 -1.4365595879407070e-01  7.1665824117452315e-02 -1.2262601858012077e-01 -2.6050499611790690e-01  5.7555113474854459e-02 -1.7667823704471305e-01 -3.5959757588775948e-01  3.9523529889567005e-02 -2.1869216563708582e-01 -4.3418056349491235e-01  1.8797266854216562e-02 -2.4580003397202588e-01 -4.7916714299402363e-01  -2.8540245602220911e-05 -2.5298348744442761e-01 -4.9924265514909627e-01  4.7165967987807438e-03 2.6934282118494018e-01 -1.9416535642974353e-02  8.5824949345280829e-03 2.6152449248841914e-01 -2.2699904789288353e-02  1.1839861383118775e-02 2.3588042361109851e-01 -2.4392142869412256e-02  1.4283581251835382e-02 1.9416122545115075e-01 -2.4431986831051890e-02  1.5750617879119907e-02 1.3921016416397300e-01 -2.2813576558672069e-02  1.6142330084234126e-02 7.4773131316439909e-02 -1.9644392379494890e-02  1.5433642844519925e-02 5.2419260799456569e-03 -1.5136881698406233e-02  1.3674688349528138e-02 -6.4645152443673554e-02 -9.5946553308017442e-03  1.0986844890196745e-02 -1.3012602981960053e-01 -3.3927465758183490e-03  7.5539862276688338e-03 -1.8673910163620216e-01 3.0472184413201887e-03  3.6099085197192861e-03 -2.3062697012300035e-01 9.2851338586275312e-03  -5.7895417214123466e-04 -2.5879617566319485e-01 1.4896263941630615e-02  1.0667004600578823e-03 -2.6353135740420103e-01 6.3179075513878956e-03  5.9361890719576782e-03 2.6417117324285116e-01 -5.2906739868821240e-01  -8.4161596077687879e-03 2.5615855960378464e-01 -5.1420115273556344e-01  -2.2219632823919883e-02 2.3069304992316433e-01 -4.6428186400785459e-01  -3.4516363134934926e-02 1.8950450616657247e-01 -3.8273323092658257e-01  -4.4464090776151939e-02 1.3540097748393370e-01 -2.7510807334642939e-01  -5.1383337132705445e-02 7.2071069074427757e-02 -1.4873705142947116e-01  -5.4800399074815660e-02 3.8314176285061808e-03 -1.2227561284535024e-02  -5.4479895398803206e-02 -6.4667455536560531e-02 1.2512168589130851e-01  -5.0441625373323508e-02 -1.2875788307127611e-01 2.5395314181935819e-01  -4.2959810877797260e-02 -1.8407286509724324e-01 3.6548731012347230e-01  -3.2544343069576050e-02 -2.2684341884019871e-01 4.5212022546327718e-01  -1.9908280425207175e-02 -2.5415520313105633e-01 5.0794471520502593e-01  2.0825593008986175e-03 -2.5611524501930244e-01 5.1145582312161908e-01  6.7551904255756662e-03 2.4099861312755680e-01 -1.0026623476900869e+00  -2.4839463166031615e-02 2.3333740803094938e-01 -9.7066265537886243e-01  -5.4765259813868650e-02 2.0978463924493504e-01 -8.7253609583445180e-01  -8.0966168439866884e-02 1.7193227512351555e-01 -7.1495630319636938e-01  -1.0165193038301611e-01 1.2236248181813691e-01 -5.0865756202586354e-01  -1.1541103155673087e-01 6.4455405907615795e-02 -2.6769479847672073e-01  -1.2130307281066105e-0